 Entering Gaussian System, Link 0=g09
 Input=lig-opt-charge.com
 Output=lig-opt-charge.log
 Initial command:
 /afs/crc.nd.edu/x86_64_linux/gaussian/09D01/pgi12.8/g09/l1.exe "/scratch/Gau-50432.inp" -scrdir="/scratch/"
 Entering Link 1 = /afs/crc.nd.edu/x86_64_linux/gaussian/09D01/pgi12.8/g09/l1.exe PID=     50433.
  
 Copyright (c) 1988,1990,1992,1993,1995,1998,2003,2009,2013,
            Gaussian, Inc.  All Rights Reserved.
  
 This is part of the Gaussian(R) 09 program.  It is based on
 the Gaussian(R) 03 system (copyright 2003, Gaussian, Inc.),
 the Gaussian(R) 98 system (copyright 1998, Gaussian, Inc.),
 the Gaussian(R) 94 system (copyright 1995, Gaussian, Inc.),
 the Gaussian 92(TM) system (copyright 1992, Gaussian, Inc.),
 the Gaussian 90(TM) system (copyright 1990, Gaussian, Inc.),
 the Gaussian 88(TM) system (copyright 1988, Gaussian, Inc.),
 the Gaussian 86(TM) system (copyright 1986, Carnegie Mellon
 University), and the Gaussian 82(TM) system (copyright 1983,
 Carnegie Mellon University). Gaussian is a federally registered
 trademark of Gaussian, Inc.
  
 This software contains proprietary and confidential information,
 including trade secrets, belonging to Gaussian, Inc.
  
 This software is provided under written license and may be
 used, copied, transmitted, or stored only in accord with that
 written license.
  
 The following legend is applicable only to US Government
 contracts under FAR:
  
                    RESTRICTED RIGHTS LEGEND
  
 Use, reproduction and disclosure by the US Government is
 subject to restrictions as set forth in subparagraphs (a)
 and (c) of the Commercial Computer Software - Restricted
 Rights clause in FAR 52.227-19.
  
 Gaussian, Inc.
 340 Quinnipiac St., Bldg. 40, Wallingford CT 06492
  
  
 ---------------------------------------------------------------
 Warning -- This program may not be used in any manner that
 competes with the business of Gaussian, Inc. or will provide
 assistance to any competitor of Gaussian, Inc.  The licensee
 of this program is prohibited from giving any competitor of
 Gaussian, Inc. access to this program.  By using this program,
 the user acknowledges that Gaussian, Inc. is engaged in the
 business of creating and licensing software in the field of
 computational chemistry and represents and warrants to the
 licensee that it is not a competitor of Gaussian, Inc. and that
 it will not use this program in any manner prohibited above.
 ---------------------------------------------------------------
  

 Cite this work as:
 Gaussian 09, Revision D.01,
 M. J. Frisch, G. W. Trucks, H. B. Schlegel, G. E. Scuseria, 
 M. A. Robb, J. R. Cheeseman, G. Scalmani, V. Barone, B. Mennucci, 
 G. A. Petersson, H. Nakatsuji, M. Caricato, X. Li, H. P. Hratchian, 
 A. F. Izmaylov, J. Bloino, G. Zheng, J. L. Sonnenberg, M. Hada, 
 M. Ehara, K. Toyota, R. Fukuda, J. Hasegawa, M. Ishida, T. Nakajima, 
 Y. Honda, O. Kitao, H. Nakai, T. Vreven, J. A. Montgomery, Jr., 
 J. E. Peralta, F. Ogliaro, M. Bearpark, J. J. Heyd, E. Brothers, 
 K. N. Kudin, V. N. Staroverov, T. Keith, R. Kobayashi, J. Normand, 
 K. Raghavachari, A. Rendell, J. C. Burant, S. S. Iyengar, J. Tomasi, 
 M. Cossi, N. Rega, J. M. Millam, M. Klene, J. E. Knox, J. B. Cross, 
 V. Bakken, C. Adamo, J. Jaramillo, R. Gomperts, R. E. Stratmann, 
 O. Yazyev, A. J. Austin, R. Cammi, C. Pomelli, J. W. Ochterski, 
 R. L. Martin, K. Morokuma, V. G. Zakrzewski, G. A. Voth, 
 P. Salvador, J. J. Dannenberg, S. Dapprich, A. D. Daniels, 
 O. Farkas, J. B. Foresman, J. V. Ortiz, J. Cioslowski, 
 and D. J. Fox, Gaussian, Inc., Wallingford CT, 2013.
 
 ******************************************
 Gaussian 09:  AM64L-G09RevD.01 24-Apr-2013
                27-Jun-2016 
 ******************************************
 %mem=6500MB
 %nprocs=8
 Will use up to    8 processors via shared memory.
 %lindaworkers=localhost
 SetLPE:  input flags=""
 SetLPE:    new flags=" -nodelist 'localhost'"
 Will use up to    1 processors via Linda.
 --------------------------------
 #B3LYP/6-31g* pop=mk iop(6/50=1)
 --------------------------------
 1/38=1/1;
 2/12=2,17=6,18=5,40=1/2;
 3/5=1,6=6,7=1,11=2,16=1,25=1,30=1,74=-5/1,2,3;
 4//1;
 5/5=2,38=5/2;
 6/7=2,8=2,9=2,10=2,15=8,20=1,28=1,50=1/1,2;
 99/5=1,9=1/99;
 -------
 lig opt
 -------
 Symbolic Z-matrix:
 Charge =  0 Multiplicity = 1
 C                    0     24.28605  -23.94839   0.04557 
 C                    0     21.46499  -27.26196  -4.25508 
 C                    0     21.914   -26.74228  -5.47097 
 C                    0     22.57232  -25.51589  -5.50666 
 C                    0     22.7902  -24.80499  -4.32305 
 C                    0     21.68505  -26.54119  -3.08201 
 C                    0     22.34774  -25.3073  -3.08448 
 C                    0     22.60734  -24.56021  -1.79223 
 C                    0     24.0483  -24.7134  -1.25956 
 O                    0     23.45116  -23.60822  -4.44257 
 H                    0     25.31432  -24.0786   0.40068 
 H                    0     24.11254  -22.87255  -0.08365 
 H                    0     23.61272  -24.2975   0.83796 
 H                    0     20.94663  -28.21579  -4.22034 
 H                    0     21.74947  -27.28943  -6.39544 
 H                    0     22.9267  -25.08838  -6.43959 
 H                    0     21.33406  -26.93879  -2.13178 
 H                    0     21.90645  -24.9182  -1.02812 
 H                    0     22.3769  -23.48739  -1.90732 
 H                    0     24.25302  -25.78112  -1.11156 
 H                    0     24.76158  -24.37613  -2.02426 
 H                    0     23.48944  -23.17629  -3.57654 
 
                          Input orientation:                          
 ---------------------------------------------------------------------
 Center     Atomic      Atomic             Coordinates (Angstroms)
 Number     Number       Type             X           Y           Z
 ---------------------------------------------------------------------
      1          6           0       24.286052  -23.948393    0.045569
      2          6           0       21.464992  -27.261957   -4.255081
      3          6           0       21.914004  -26.742281   -5.470970
      4          6           0       22.572319  -25.515892   -5.506657
      5          6           0       22.790202  -24.804990   -4.323052
      6          6           0       21.685049  -26.541186   -3.082007
      7          6           0       22.347744  -25.307304   -3.084484
      8          6           0       22.607344  -24.560206   -1.792232
      9          6           0       24.048302  -24.713398   -1.259563
     10          8           0       23.451157  -23.608222   -4.442571
     11          1           0       25.314318  -24.078598    0.400681
     12          1           0       24.112542  -22.872554   -0.083649
     13          1           0       23.612724  -24.297496    0.837958
     14          1           0       20.946629  -28.215794   -4.220338
     15          1           0       21.749470  -27.289429   -6.395440
     16          1           0       22.926703  -25.088381   -6.439587
     17          1           0       21.334057  -26.938794   -2.131782
     18          1           0       21.906449  -24.918204   -1.028116
     19          1           0       22.376904  -23.487392   -1.907316
     20          1           0       24.253020  -25.781116   -1.111562
     21          1           0       24.761583  -24.376127   -2.024259
     22          1           0       23.489437  -23.176286   -3.576542
 ---------------------------------------------------------------------
                    Distance matrix (angstroms):
                    1          2          3          4          5
     1  C    0.000000
     2  C    6.118306   0.000000
     3  C    6.623037   1.396447   0.000000
     4  C    6.018400   2.416890   1.392365   0.000000
     5  C    4.696399   2.792399   2.416306   1.397776   0.000000
     6  C    4.823849   1.394287   2.408320   2.778021   2.403317
     7  C    3.924399   2.443402   2.818262   2.441488   1.407884
     8  C    2.563179   3.830151   4.333046   3.835560   2.549197
     9  C    1.531380   4.705505   5.138827   4.567311   3.313030
    10  O    4.577790   4.162906   3.639061   2.354536   1.372370
    11  H    1.095623   6.828411   7.289282   6.669408   5.404855
    12  H    1.097376   6.608875   6.987960   6.226438   4.843080
    13  H    1.096870   6.272147   6.976044   6.543780   5.250724
    14  H    6.896405   1.086145   2.161281   3.403961   3.878517
    15  H    7.686570   2.159356   1.086778   2.147661   3.398581
    16  H    6.723440   3.410733   2.167755   1.085686   2.139782
    17  H    4.732613   2.151738   3.394869   3.866229   3.387498
    18  H    2.784931   4.012650   4.802735   4.567049   3.413274
    19  H    2.769680   4.537723   4.848527   4.136213   2.782564
    20  H    2.167698   4.455076   5.039770   4.712957   3.661465
    21  H    2.166396   4.916513   5.058380   4.268377   3.058548
    22  H    3.788196   4.609935   4.334417   3.168628   1.923248
                    6          7          8          9         10
     6  C    0.000000
     7  C    1.400584   0.000000
     8  C    2.537407   1.515079   0.000000
     9  C    3.499582   2.564169   1.543879   0.000000
    10  O    3.684094   2.439016   2.939829   3.421920   0.000000
    11  H    5.600451   4.738846   3.516891   2.182241   5.210539
    12  H    5.323696   4.248239   2.834263   2.185316   4.469770
    13  H    4.910825   4.243282   2.828021   2.182268   5.327775
    14  H    2.155312   3.422367   4.692227   5.536546   5.248978
    15  H    3.397477   3.905019   5.419791   6.188521   4.501191
    16  H    3.863378   3.411721   4.688163   5.313309   2.540471
    17  H    1.088217   2.144053   2.719235   3.616667   4.573245
    18  H    2.627081   2.138876   1.096945   2.164035   3.969972
    19  H    3.344282   2.167639   1.103303   2.171692   2.756110
    20  H    3.324881   2.783343   2.159209   1.097195   4.057102
    21  H    3.907861   2.796031   2.174504   1.098764   2.855719
    22  H    3.850057   2.467149   2.424270   2.836095   0.968525
                   11         12         13         14         15
    11  H    0.000000
    12  H    1.770137   0.000000
    13  H    1.770466   1.769078   0.000000
    14  H    7.585968   7.462266   6.931629   0.000000
    15  H    8.318944   8.058015   8.046454   2.496753   0.000000
    16  H    7.315028   6.834768   7.352468   4.315840   2.496485
    17  H    5.516934   5.333773   4.581281   2.478486   4.298173
    18  H    3.789455   3.153340   2.603629   4.688884   5.869882
    19  H    3.782165   2.591568   3.117699   5.454681   5.915439
    20  H    2.512329   3.088053   2.532140   5.150181   6.038389
    21  H    2.504869   2.539282   3.085181   5.841205   6.055360
    22  H    4.467959   3.561013   4.556327   5.681284   5.281251
                   16         17         18         19         20
    16  H    0.000000
    17  H    4.951539   0.000000
    18  H    5.509437   2.372445   0.000000
    19  H    4.838071   3.612491   1.744002   0.000000
    20  H    5.534154   3.301729   2.501595   3.068258   0.000000
    21  H    4.834172   4.280976   3.072123   2.547592   1.750899
    22  H    3.488525   4.570500   3.469093   2.029984   3.666651
                   21         22
    21  H    0.000000
    22  H    2.338281   0.000000
 Stoichiometry    C9H12O
 Framework group  C1[X(C9H12O)]
 Deg. of freedom    60
 Full point group                 C1      NOp   1
 Largest Abelian subgroup         C1      NOp   1
 Largest concise Abelian subgroup C1      NOp   1
                         Standard orientation:                         
 ---------------------------------------------------------------------
 Center     Atomic      Atomic             Coordinates (Angstroms)
 Number     Number       Type             X           Y           Z
 ---------------------------------------------------------------------
      1          6           0       -3.758649   -0.263623    0.243076
      2          6           0        2.244297   -1.436772    0.094679
      3          6           0        2.863718   -0.205102    0.316876
      4          6           0        2.130960    0.974460    0.214993
      5          6           0        0.771015    0.926967   -0.104491
      6          6           0        0.888087   -1.470358   -0.227193
      7          6           0        0.123075   -0.301925   -0.332820
      8          6           0       -1.357489   -0.366335   -0.647857
      9          6           0       -2.267980   -0.196443    0.587338
     10          8           0        0.119118    2.132277   -0.179710
     11          1           0       -4.378878   -0.143836    1.138262
     12          1           0       -4.041812    0.524878   -0.465668
     13          1           0       -4.016650   -1.226197   -0.215192
     14          1           0        2.810786   -2.360592    0.167882
     15          1           0        3.920399   -0.159819    0.566798
     16          1           0        2.590417    1.944478    0.378329
     17          1           0        0.400438   -2.426720   -0.405481
     18          1           0       -1.578121   -1.330809   -1.121567
     19          1           0       -1.629937    0.389369   -1.404137
     20          1           0       -2.015362   -0.976909    1.315963
     21          1           0       -2.042709    0.758153    1.082596
     22          1           0       -0.793723    1.984580   -0.467716
 ---------------------------------------------------------------------
 Rotational constants (GHZ):      2.5626138      0.8389351      0.6705638
 Standard basis: 6-31G(d) (6D, 7F)
 There are   174 symmetry adapted cartesian basis functions of A   symmetry.
 There are   174 symmetry adapted basis functions of A   symmetry.
   174 basis functions,   328 primitive gaussians,   174 cartesian basis functions
    37 alpha electrons       37 beta electrons
       nuclear repulsion energy       505.3174242336 Hartrees.
 NAtoms=   22 NActive=   22 NUniq=   22 SFac= 1.00D+00 NAtFMM=   60 NAOKFM=F Big=F
 Integral buffers will be    131072 words long.
 Raffenetti 2 integral format.
 Two-electron integral symmetry is turned on.
 One-electron integrals computed using PRISM.
 NBasis=   174 RedAO= T EigKep=  4.20D-04  NBF=   174
 NBsUse=   174 1.00D-06 EigRej= -1.00D+00 NBFU=   174
 ExpMin= 1.61D-01 ExpMax= 5.48D+03 ExpMxC= 8.25D+02 IAcc=1 IRadAn=         1 AccDes= 0.00D+00
 Harris functional with IExCor=  402 and IRadAn=       1 diagonalized for initial guess.
 HarFok:  IExCor=  402 AccDes= 0.00D+00 IRadAn=         1 IDoV= 1 UseB2=F ITyADJ=14
 ICtDFT=  3500011 ScaDFX=  1.000000  1.000000  1.000000  1.000000
 FoFCou: FMM=F IPFlag=           0 FMFlag=      100000 FMFlg1=           0
         NFxFlg=           0 DoJE=T BraDBF=F KetDBF=T FulRan=T
         wScrn=  0.000000 ICntrl=     500 IOpCl=  0 I1Cent=   200000004 NGrid=           0
         NMat0=    1 NMatS0=      1 NMatT0=    0 NMatD0=    1 NMtDS0=    0 NMtDT0=    0
 Petite list used in FoFCou.
 Keep R1 ints in memory in canonical form, NReq=118699621.
 Requested convergence on RMS density matrix=1.00D-08 within 128 cycles.
 Requested convergence on MAX density matrix=1.00D-06.
 Requested convergence on             energy=1.00D-06.
 No special actions if energy rises.
 Integral accuracy reduced to 1.0D-05 until final iterations.
 Initial convergence to 1.0D-05 achieved.  Increase integral accuracy.
 SCF Done:  E(RB3LYP) =  -425.409484186     A.U. after   14 cycles
            NFock= 14  Conv=0.39D-08     -V/T= 2.0097

 **********************************************************************

            Population analysis using the SCF density.

 **********************************************************************

 Orbital symmetries:
       Occupied  (A) (A) (A) (A) (A) (A) (A) (A) (A) (A) (A) (A)
                 (A) (A) (A) (A) (A) (A) (A) (A) (A) (A) (A) (A)
                 (A) (A) (A) (A) (A) (A) (A) (A) (A) (A) (A) (A)
                 (A)
       Virtual   (A) (A) (A) (A) (A) (A) (A) (A) (A) (A) (A) (A)
                 (A) (A) (A) (A) (A) (A) (A) (A) (A) (A) (A) (A)
                 (A) (A) (A) (A) (A) (A) (A) (A) (A) (A) (A) (A)
                 (A) (A) (A) (A) (A) (A) (A) (A) (A) (A) (A) (A)
                 (A) (A) (A) (A) (A) (A) (A) (A) (A) (A) (A) (A)
                 (A) (A) (A) (A) (A) (A) (A) (A) (A) (A) (A) (A)
                 (A) (A) (A) (A) (A) (A) (A) (A) (A) (A) (A) (A)
                 (A) (A) (A) (A) (A) (A) (A) (A) (A) (A) (A) (A)
                 (A) (A) (A) (A) (A) (A) (A) (A) (A) (A) (A) (A)
                 (A) (A) (A) (A) (A) (A) (A) (A) (A) (A) (A) (A)
                 (A) (A) (A) (A) (A) (A) (A) (A) (A) (A) (A) (A)
                 (A) (A) (A) (A) (A)
 The electronic state is 1-A.
 Alpha  occ. eigenvalues --  -19.17392 -10.24226 -10.19709 -10.19081 -10.19015
 Alpha  occ. eigenvalues --  -10.18507 -10.18438 -10.18129 -10.17848 -10.17772
 Alpha  occ. eigenvalues --   -1.05360  -0.84639  -0.79890  -0.74584  -0.73170
 Alpha  occ. eigenvalues --   -0.68121  -0.61119  -0.59770  -0.58863  -0.53310
 Alpha  occ. eigenvalues --   -0.49150  -0.46839  -0.45060  -0.43453  -0.42597
 Alpha  occ. eigenvalues --   -0.41806  -0.39365  -0.38777  -0.38233  -0.37226
 Alpha  occ. eigenvalues --   -0.35095  -0.34548  -0.33608  -0.32604  -0.32334
 Alpha  occ. eigenvalues --   -0.24016  -0.21390
 Alpha virt. eigenvalues --    0.00450   0.01809   0.05579   0.09945   0.11293
 Alpha virt. eigenvalues --    0.12747   0.13969   0.15789   0.16369   0.16649
 Alpha virt. eigenvalues --    0.17155   0.18063   0.18611   0.19009   0.20171
 Alpha virt. eigenvalues --    0.23651   0.24828   0.25399   0.26456   0.32084
 Alpha virt. eigenvalues --    0.32775   0.35767   0.37785   0.48767   0.49931
 Alpha virt. eigenvalues --    0.51342   0.52357   0.53713   0.54384   0.54939
 Alpha virt. eigenvalues --    0.56905   0.59190   0.61023   0.61260   0.61763
 Alpha virt. eigenvalues --    0.61987   0.62238   0.62499   0.65981   0.66757
 Alpha virt. eigenvalues --    0.67995   0.69595   0.71881   0.75029   0.76962
 Alpha virt. eigenvalues --    0.81650   0.82431   0.83679   0.85076   0.85108
 Alpha virt. eigenvalues --    0.86503   0.88056   0.88825   0.90302   0.91698
 Alpha virt. eigenvalues --    0.92374   0.93246   0.94392   0.96758   0.97648
 Alpha virt. eigenvalues --    0.98482   1.02585   1.04143   1.07429   1.09548
 Alpha virt. eigenvalues --    1.11518   1.13684   1.16699   1.23802   1.25522
 Alpha virt. eigenvalues --    1.27912   1.33598   1.37582   1.39082   1.40896
 Alpha virt. eigenvalues --    1.42687   1.45489   1.48629   1.49103   1.50651
 Alpha virt. eigenvalues --    1.56896   1.63193   1.68215   1.73407   1.75058
 Alpha virt. eigenvalues --    1.78739   1.80130   1.80782   1.87220   1.89968
 Alpha virt. eigenvalues --    1.91159   1.91961   1.93204   1.95604   1.98247
 Alpha virt. eigenvalues --    1.98519   1.99209   2.03440   2.07772   2.10137
 Alpha virt. eigenvalues --    2.12433   2.17533   2.22436   2.25692   2.26159
 Alpha virt. eigenvalues --    2.28076   2.30668   2.31502   2.33592   2.35722
 Alpha virt. eigenvalues --    2.40187   2.41858   2.45435   2.52213   2.55422
 Alpha virt. eigenvalues --    2.56949   2.64168   2.66778   2.69699   2.71373
 Alpha virt. eigenvalues --    2.75226   2.77314   2.83295   2.85584   3.00554
 Alpha virt. eigenvalues --    3.13826   3.42415   4.00107   4.09750   4.12172
 Alpha virt. eigenvalues --    4.15075   4.23183   4.30871   4.39017   4.42526
 Alpha virt. eigenvalues --    4.52045   4.77105
          Condensed to atoms (all electrons):
               1          2          3          4          5          6
     1  C    5.073257   0.000002   0.000000   0.000002   0.000075   0.000021
     2  C    0.000002   4.888480   0.543436  -0.030514  -0.047952   0.524435
     3  C    0.000000   0.543436   4.848114   0.540815  -0.014028  -0.029120
     4  C    0.000002  -0.030514   0.540815   4.980296   0.516963  -0.047804
     5  C    0.000075  -0.047952  -0.014028   0.516963   4.612312   0.002489
     6  C    0.000021   0.524435  -0.029120  -0.047804   0.002489   4.950802
     7  C    0.004092  -0.028753  -0.031714  -0.065599   0.468058   0.531861
     8  C   -0.042844   0.006845   0.000060   0.007793  -0.053538  -0.055048
     9  C    0.356924  -0.000105   0.000019   0.000005  -0.002639  -0.003191
    10  O   -0.000008   0.000190   0.003008  -0.059571   0.293419   0.003997
    11  H    0.373855   0.000000   0.000000   0.000000  -0.000002   0.000000
    12  H    0.376924   0.000000   0.000000   0.000000   0.000002  -0.000001
    13  H    0.378583   0.000000   0.000000   0.000000  -0.000003   0.000003
    14  H    0.000000   0.357604  -0.042560   0.004318   0.000895  -0.039252
    15  H    0.000000  -0.043160   0.358259  -0.041726   0.004493   0.004873
    16  H    0.000000   0.004649  -0.043160   0.343306  -0.033546   0.000406
    17  H   -0.000035  -0.044418   0.004921   0.000539   0.004525   0.351794
    18  H   -0.003408   0.000171   0.000018  -0.000205   0.003597  -0.003260
    19  H   -0.002014  -0.000185   0.000011   0.000043  -0.004069   0.002746
    20  H   -0.036066  -0.000075  -0.000009  -0.000019  -0.000164   0.002647
    21  H   -0.038423   0.000031  -0.000008  -0.000201   0.002277  -0.000049
    22  H   -0.000106  -0.000024  -0.000206   0.006728  -0.025258   0.000219
               7          8          9         10         11         12
     1  C    0.004092  -0.042844   0.356924  -0.000008   0.373855   0.376924
     2  C   -0.028753   0.006845  -0.000105   0.000190   0.000000   0.000000
     3  C   -0.031714   0.000060   0.000019   0.003008   0.000000   0.000000
     4  C   -0.065599   0.007793   0.000005  -0.059571   0.000000   0.000000
     5  C    0.468058  -0.053538  -0.002639   0.293419  -0.000002   0.000002
     6  C    0.531861  -0.055048  -0.003191   0.003997   0.000000  -0.000001
     7  C    4.870781   0.330389  -0.039512  -0.071900  -0.000115   0.000070
     8  C    0.330389   5.209347   0.361711  -0.007165   0.004045  -0.004634
     9  C   -0.039512   0.361711   5.008613  -0.002645  -0.026555  -0.035372
    10  O   -0.071900  -0.007165  -0.002645   8.248340   0.000000   0.000005
    11  H   -0.000115   0.004045  -0.026555   0.000000   0.565842  -0.030925
    12  H    0.000070  -0.004634  -0.035372   0.000005  -0.030925   0.581223
    13  H    0.000019  -0.004244  -0.035085  -0.000001  -0.030399  -0.032579
    14  H    0.003873  -0.000169   0.000001   0.000002   0.000000   0.000000
    15  H    0.000676   0.000006   0.000000  -0.000061   0.000000   0.000000
    16  H    0.006515  -0.000174   0.000001  -0.000890   0.000000   0.000000
    17  H   -0.042759  -0.009950   0.000251  -0.000058   0.000001   0.000000
    18  H   -0.028591   0.358942  -0.035484   0.000271  -0.000043  -0.000351
    19  H   -0.036965   0.351968  -0.051089   0.001040  -0.000062   0.005131
    20  H   -0.001283  -0.038230   0.377046   0.000043  -0.002661   0.004965
    21  H   -0.005485  -0.041922   0.375488   0.004867  -0.002705  -0.003953
    22  H   -0.015610   0.012704   0.000340   0.237589  -0.000005   0.000032
              13         14         15         16         17         18
     1  C    0.378583   0.000000   0.000000   0.000000  -0.000035  -0.003408
     2  C    0.000000   0.357604  -0.043160   0.004649  -0.044418   0.000171
     3  C    0.000000  -0.042560   0.358259  -0.043160   0.004921   0.000018
     4  C    0.000000   0.004318  -0.041726   0.343306   0.000539  -0.000205
     5  C   -0.000003   0.000895   0.004493  -0.033546   0.004525   0.003597
     6  C    0.000003  -0.039252   0.004873   0.000406   0.351794  -0.003260
     7  C    0.000019   0.003873   0.000676   0.006515  -0.042759  -0.028591
     8  C   -0.004244  -0.000169   0.000006  -0.000174  -0.009950   0.358942
     9  C   -0.035085   0.000001   0.000000   0.000001   0.000251  -0.035484
    10  O   -0.000001   0.000002  -0.000061  -0.000890  -0.000058   0.000271
    11  H   -0.030399   0.000000   0.000000   0.000000   0.000001  -0.000043
    12  H   -0.032579   0.000000   0.000000   0.000000   0.000000  -0.000351
    13  H    0.572387   0.000000   0.000000   0.000000  -0.000001   0.004742
    14  H    0.000000   0.603125  -0.005374  -0.000167  -0.005513  -0.000013
    15  H    0.000000  -0.005374   0.600483  -0.006141  -0.000202   0.000000
    16  H    0.000000  -0.000167  -0.006141   0.592854   0.000018   0.000002
    17  H   -0.000001  -0.005513  -0.000202   0.000018   0.613193   0.006588
    18  H    0.004742  -0.000013   0.000000   0.000002   0.006588   0.578887
    19  H   -0.000366   0.000003   0.000000  -0.000003   0.000083  -0.033637
    20  H   -0.004236   0.000001   0.000000   0.000000   0.000265  -0.005116
    21  H    0.004996   0.000000   0.000000   0.000004   0.000005   0.005600
    22  H    0.000005   0.000000   0.000005  -0.000266  -0.000014  -0.000241
              19         20         21         22
     1  C   -0.002014  -0.036066  -0.038423  -0.000106
     2  C   -0.000185  -0.000075   0.000031  -0.000024
     3  C    0.000011  -0.000009  -0.000008  -0.000206
     4  C    0.000043  -0.000019  -0.000201   0.006728
     5  C   -0.004069  -0.000164   0.002277  -0.025258
     6  C    0.002746   0.002647  -0.000049   0.000219
     7  C   -0.036965  -0.001283  -0.005485  -0.015610
     8  C    0.351968  -0.038230  -0.041922   0.012704
     9  C   -0.051089   0.377046   0.375488   0.000340
    10  O    0.001040   0.000043   0.004867   0.237589
    11  H   -0.000062  -0.002661  -0.002705  -0.000005
    12  H    0.005131   0.004965  -0.003953   0.000032
    13  H   -0.000366  -0.004236   0.004996   0.000005
    14  H    0.000003   0.000001   0.000000   0.000000
    15  H    0.000000   0.000000   0.000000   0.000005
    16  H   -0.000003   0.000000   0.000004  -0.000266
    17  H    0.000083   0.000265   0.000005  -0.000014
    18  H   -0.033637  -0.005116   0.005600  -0.000241
    19  H    0.629100   0.006166  -0.006394   0.008716
    20  H    0.006166   0.584731  -0.036233  -0.000002
    21  H   -0.006394  -0.036233   0.603110   0.001629
    22  H    0.008716  -0.000002   0.001629   0.360379
 Mulliken charges:
               1
     1  C   -0.440830
     2  C   -0.130656
     3  C   -0.137854
     4  C   -0.155168
     5  C    0.272097
     6  C   -0.198566
     7  C    0.151953
     8  C   -0.385891
     9  C   -0.248722
    10  O   -0.650473
    11  H    0.149728
    12  H    0.139463
    13  H    0.146179
    14  H    0.123227
    15  H    0.127869
    16  H    0.136590
    17  H    0.120766
    18  H    0.151531
    19  H    0.129777
    20  H    0.148228
    21  H    0.137366
    22  H    0.413384
 Sum of Mulliken charges =   0.00000
 Mulliken charges with hydrogens summed into heavy atoms:
               1
     1  C   -0.005460
     2  C   -0.007428
     3  C   -0.009985
     4  C   -0.018578
     5  C    0.272097
     6  C   -0.077800
     7  C    0.151953
     8  C   -0.104583
     9  C    0.036872
    10  O   -0.237089
 Electronic spatial extent (au):  <R**2>=           1748.9145
 Charge=              0.0000 electrons
 Dipole moment (field-independent basis, Debye):
    X=             -1.4774    Y=             -0.8057    Z=             -0.3023  Tot=              1.7097
 Quadrupole moment (field-independent basis, Debye-Ang):
   XX=            -55.3969   YY=            -60.1234   ZZ=            -62.4535
   XY=             -1.7723   XZ=              1.8556   YZ=             -0.3498
 Traceless Quadrupole moment (field-independent basis, Debye-Ang):
   XX=              3.9277   YY=             -0.7988   ZZ=             -3.1289
   XY=             -1.7723   XZ=              1.8556   YZ=             -0.3498
 Octapole moment (field-independent basis, Debye-Ang**2):
  XXX=             11.8593  YYY=             -4.3708  ZZZ=             -0.8048  XYY=             -2.7009
  XXY=              5.9510  XXZ=              5.5297  XZZ=             -6.8726  YZZ=              4.7123
  YYZ=             -2.1746  XYZ=              1.8429
 Hexadecapole moment (field-independent basis, Debye-Ang**3):
 XXXX=          -1676.3398 YYYY=           -510.7869 ZZZZ=           -139.9037 XXXY=             -2.4504
 XXXZ=             13.3199 YYYX=            -13.6657 YYYZ=             -0.5697 ZZZX=             -3.2310
 ZZZY=             -3.5606 XXYY=           -347.7902 XXZZ=           -316.9335 YYZZ=           -109.5292
 XXYZ=             -1.5270 YYXZ=              8.0358 ZZXY=              1.3759
 N-N= 5.053174242336D+02 E-N=-1.997847160815D+03  KE= 4.213082261160D+02
 Merz-Kollman atomic radii used.

 **********************************************************************

            Electrostatic Properties Using The SCF Density

 **********************************************************************

       Atomic Center    1 is at  -3.758649 -0.263623  0.243076
       Atomic Center    2 is at   2.244297 -1.436772  0.094679
       Atomic Center    3 is at   2.863718 -0.205102  0.316876
       Atomic Center    4 is at   2.130960  0.974460  0.214993
       Atomic Center    5 is at   0.771015  0.926967 -0.104491
       Atomic Center    6 is at   0.888087 -1.470358 -0.227193
       Atomic Center    7 is at   0.123075 -0.301925 -0.332820
       Atomic Center    8 is at  -1.357489 -0.366335 -0.647857
       Atomic Center    9 is at  -2.267980 -0.196443  0.587338
       Atomic Center   10 is at   0.119118  2.132277 -0.179710
       Atomic Center   11 is at  -4.378878 -0.143836  1.138262
       Atomic Center   12 is at  -4.041812  0.524878 -0.465668
       Atomic Center   13 is at  -4.016650 -1.226197 -0.215192
       Atomic Center   14 is at   2.810786 -2.360592  0.167882
       Atomic Center   15 is at   3.920399 -0.159819  0.566798
       Atomic Center   16 is at   2.590417  1.944478  0.378329
       Atomic Center   17 is at   0.400438 -2.426720 -0.405481
       Atomic Center   18 is at  -1.578121 -1.330809 -1.121567
       Atomic Center   19 is at  -1.629937  0.389369 -1.404137
       Atomic Center   20 is at  -2.015362 -0.976909  1.315963
       Atomic Center   21 is at  -2.042709  0.758153  1.082596
       Atomic Center   22 is at  -0.793723  1.984580 -0.467716
     987 points will be used for fitting atomic charges
 Fitting point charges to electrostatic potential
 Charges from ESP fit, RMS=   0.00095 RRMS=   0.08504:
 ESP charges:
               1
     1  C   -0.314499
     2  C   -0.181400
     3  C   -0.091651
     4  C   -0.260770
     5  C    0.338693
     6  C   -0.126409
     7  C   -0.146717
     8  C   -0.049797
     9  C    0.143721
    10  O   -0.568960
    11  H    0.083665
    12  H    0.070090
    13  H    0.074298
    14  H    0.127771
    15  H    0.119597
    16  H    0.168631
    17  H    0.124380
    18  H    0.057365
    19  H    0.014521
    20  H    0.005739
    21  H   -0.018136
    22  H    0.429868
 Sum of ESP charges =   0.00000
 ESP charges with hydrogens summed into heavy atoms:
               1
     1  C   -0.086446
     2  C   -0.053629
     3  C    0.027946
     4  C   -0.092140
     5  C    0.338693
     6  C   -0.002029
     7  C   -0.146717
     8  C    0.022090
     9  C    0.131324
    10  O   -0.139093
 Charge=   0.00000 Dipole=    -1.4498    -0.8107    -0.3185 Tot=     1.6914
 Writing Antechamber ESP file "lig-opt-charge.gesp"
 -----------------------------------------------------------------

              Electrostatic Properties (Atomic Units)

 -----------------------------------------------------------------
    Center     Electric         -------- Electric Field --------
               Potential          X             Y             Z
 -----------------------------------------------------------------
    1 Atom    -14.741962
    2 Atom    -14.749782
    3 Atom    -14.743676
    4 Atom    -14.749475
    5 Atom    -14.684271
    6 Atom    -14.743339
    7 Atom    -14.737140
    8 Atom    -14.726708
    9 Atom    -14.732334
   10 Atom    -22.286149
   11 Atom     -1.122134
   12 Atom     -1.121887
   13 Atom     -1.122735
   14 Atom     -1.116382
   15 Atom     -1.114401
   16 Atom     -1.113037
   17 Atom     -1.112426
   18 Atom     -1.116137
   19 Atom     -1.110164
   20 Atom     -1.127164
   21 Atom     -1.124131
   22 Atom     -0.970425
 -----------------------------------------------------------------

 Test job not archived.
 1\1\GINC-Q16COPT056\SP\RB3LYP\6-31G(d)\C9H12O1\HLIU8\27-Jun-2016\0\\#B
 3LYP/6-31g* pop=mk iop(6/50=1)\\lig opt\\0,1\C,0,24.2860518605,-23.948
 3933108,0.045568526\C,0,21.4649915601,-27.2619570916,-4.2550806875\C,0
 ,21.9140039067,-26.7422806942,-5.4709703284\C,0,22.5723188327,-25.5158
 921926,-5.5066566625\C,0,22.7902020198,-24.8049898161,-4.3230515057\C,
 0,21.6850494427,-26.5411864454,-3.0820071956\C,0,22.3477437432,-25.307
 3040393,-3.0844844151\C,0,22.6073437821,-24.5602056306,-1.7922316203\C
 ,0,24.0483016285,-24.7133977375,-1.2595628579\O,0,23.4511568542,-23.60
 82221105,-4.442571357\H,0,25.314318043,-24.0785980219,0.4006806599\H,0
 ,24.1125421285,-22.8725537023,-0.0836492548\H,0,23.6127239109,-24.2974
 957406,0.8379575823\H,0,20.946629212,-28.2157940156,-4.2203377542\H,0,
 21.7494698718,-27.2894287555,-6.3954399715\H,0,22.9267029858,-25.08838
 09609,-6.4395873541\H,0,21.3340571521,-26.9387943971,-2.1317816196\H,0
 ,21.9064490504,-24.9182044152,-1.0281160855\H,0,22.376903518,-23.48739
 17918,-1.9073155269\H,0,24.2530203229,-25.7811162394,-1.1115617509\H,0
 ,24.7615831585,-24.3761270541,-2.0242586519\H,0,23.4894370156,-23.1762
 858369,-3.5765421688\\Version=AM64L-G09RevD.01\State=1-A\HF=-425.40948
 42\RMSD=3.866e-09\Dipole=-0.0107884,0.0775157,0.6680831\Quadrupole=-1.
 9679578,1.1774801,0.7904777,1.5912642,0.6197943,2.2348571\PG=C01 [X(C9
 H12O1)]\\@


 IT IS A CAPITAL MISTAKE TO THEORIZE BEFORE ONE HAS
 DATA.  INSENSIBLY ONE BEGINS TO TWIST FACTS TO SUIT
 THEORIES RATHER THAN THEORIES TO SUIT FACTS.

                                         -- SHERLOCK HOLMES
 Job cpu time:       0 days  0 hours  4 minutes 19.4 seconds.
 File lengths (MBytes):  RWF=     14 Int=      0 D2E=      0 Chk=      2 Scr=      1
 Normal termination of Gaussian 09 at Mon Jun 27 12:38:46 2016.
