 Entering Gaussian System, Link 0=g09
 Input=lig-opt.com
 Output=lig-opt.log
 Initial command:
 /afs/crc.nd.edu/x86_64_linux/gaussian/09D01/pgi12.8/g09/l1.exe "/scratch/Gau-45715.inp" -scrdir="/scratch/"
 Entering Link 1 = /afs/crc.nd.edu/x86_64_linux/gaussian/09D01/pgi12.8/g09/l1.exe PID=     45716.
  
 Copyright (c) 1988,1990,1992,1993,1995,1998,2003,2009,2013,
            Gaussian, Inc.  All Rights Reserved.
  
 This is part of the Gaussian(R) 09 program.  It is based on
 the Gaussian(R) 03 system (copyright 2003, Gaussian, Inc.),
 the Gaussian(R) 98 system (copyright 1998, Gaussian, Inc.),
 the Gaussian(R) 94 system (copyright 1995, Gaussian, Inc.),
 the Gaussian 92(TM) system (copyright 1992, Gaussian, Inc.),
 the Gaussian 90(TM) system (copyright 1990, Gaussian, Inc.),
 the Gaussian 88(TM) system (copyright 1988, Gaussian, Inc.),
 the Gaussian 86(TM) system (copyright 1986, Carnegie Mellon
 University), and the Gaussian 82(TM) system (copyright 1983,
 Carnegie Mellon University). Gaussian is a federally registered
 trademark of Gaussian, Inc.
  
 This software contains proprietary and confidential information,
 including trade secrets, belonging to Gaussian, Inc.
  
 This software is provided under written license and may be
 used, copied, transmitted, or stored only in accord with that
 written license.
  
 The following legend is applicable only to US Government
 contracts under FAR:
  
                    RESTRICTED RIGHTS LEGEND
  
 Use, reproduction and disclosure by the US Government is
 subject to restrictions as set forth in subparagraphs (a)
 and (c) of the Commercial Computer Software - Restricted
 Rights clause in FAR 52.227-19.
  
 Gaussian, Inc.
 340 Quinnipiac St., Bldg. 40, Wallingford CT 06492
  
  
 ---------------------------------------------------------------
 Warning -- This program may not be used in any manner that
 competes with the business of Gaussian, Inc. or will provide
 assistance to any competitor of Gaussian, Inc.  The licensee
 of this program is prohibited from giving any competitor of
 Gaussian, Inc. access to this program.  By using this program,
 the user acknowledges that Gaussian, Inc. is engaged in the
 business of creating and licensing software in the field of
 computational chemistry and represents and warrants to the
 licensee that it is not a competitor of Gaussian, Inc. and that
 it will not use this program in any manner prohibited above.
 ---------------------------------------------------------------
  

 Cite this work as:
 Gaussian 09, Revision D.01,
 M. J. Frisch, G. W. Trucks, H. B. Schlegel, G. E. Scuseria, 
 M. A. Robb, J. R. Cheeseman, G. Scalmani, V. Barone, B. Mennucci, 
 G. A. Petersson, H. Nakatsuji, M. Caricato, X. Li, H. P. Hratchian, 
 A. F. Izmaylov, J. Bloino, G. Zheng, J. L. Sonnenberg, M. Hada, 
 M. Ehara, K. Toyota, R. Fukuda, J. Hasegawa, M. Ishida, T. Nakajima, 
 Y. Honda, O. Kitao, H. Nakai, T. Vreven, J. A. Montgomery, Jr., 
 J. E. Peralta, F. Ogliaro, M. Bearpark, J. J. Heyd, E. Brothers, 
 K. N. Kudin, V. N. Staroverov, T. Keith, R. Kobayashi, J. Normand, 
 K. Raghavachari, A. Rendell, J. C. Burant, S. S. Iyengar, J. Tomasi, 
 M. Cossi, N. Rega, J. M. Millam, M. Klene, J. E. Knox, J. B. Cross, 
 V. Bakken, C. Adamo, J. Jaramillo, R. Gomperts, R. E. Stratmann, 
 O. Yazyev, A. J. Austin, R. Cammi, C. Pomelli, J. W. Ochterski, 
 R. L. Martin, K. Morokuma, V. G. Zakrzewski, G. A. Voth, 
 P. Salvador, J. J. Dannenberg, S. Dapprich, A. D. Daniels, 
 O. Farkas, J. B. Foresman, J. V. Ortiz, J. Cioslowski, 
 and D. J. Fox, Gaussian, Inc., Wallingford CT, 2013.
 
 ******************************************
 Gaussian 09:  AM64L-G09RevD.01 24-Apr-2013
                27-Jun-2016 
 ******************************************
 %Chk=lig-opt.chk
 %mem=6500MB
 %nprocs=4
 Will use up to    4 processors via shared memory.
 %lindaworkers=localhost
 SetLPE:  input flags=""
 SetLPE:    new flags=" -nodelist 'localhost'"
 Will use up to    1 processors via Linda.
 ------------------------------
 #B3LYP/6-31g* opt freq=noraman
 ------------------------------
 1/14=-1,18=20,19=15,26=3,38=1/1,3;
 2/9=110,12=2,17=6,18=5,40=1/2;
 3/5=1,6=6,7=1,11=2,16=1,25=1,30=1,71=1,74=-5/1,2,3;
 4//1;
 5/5=2,38=5/2;
 6/7=2,8=2,9=2,10=2,28=1/1;
 7//1,2,3,16;
 1/14=-1,18=20,19=15,26=3/3(2);
 2/9=110/2;
 99//99;
 2/9=110/2;
 3/5=1,6=6,7=1,11=2,16=1,25=1,30=1,71=1,74=-5/1,2,3;
 4/5=5,16=3,69=1/1;
 5/5=2,38=5/2;
 7//1,2,3,16;
 1/14=-1,18=20,19=15,26=3/3(-5);
 2/9=110/2;
 6/7=2,8=2,9=2,10=2,19=2,28=1/1;
 99/9=1/99;
 -------
 lig opt
 -------
 Symbolic Z-matrix:
 Charge =  0 Multiplicity = 1
 C                     24.294   -24.124   -0.071 
 C                     21.553   -27.214   -4.112 
 C                     22.068   -26.747   -5.331 
 C                     22.671   -25.512   -5.448 
 C                     22.769   -24.73    -4.295 
 C                     21.693   -26.459   -2.954 
 C                     22.294   -25.187   -3.075 
 C                     22.463   -24.414   -1.808 
 C                     23.925   -24.704   -1.394 
 O                     23.412   -23.536   -4.342 
 H                     25.332   -24.366    0.156 
 H                     24.172   -23.041   -0.102 
 H                     23.648   -24.54     0.702 
 H                     21.044   -28.166   -4.07 
 H                     21.999   -27.361   -6.217 
 H                     23.046   -25.183   -6.406 
 H                     21.348   -26.851   -2.009 
 H                     21.788   -24.812   -1.05 
 H                     22.352   -23.35    -2.018 
 H                     24.089   -25.781   -1.375 
 H                     24.6     -24.32    -2.158 
 H                     23.391   -23.126   -3.474 
 

 GradGradGradGradGradGradGradGradGradGradGradGradGradGradGradGradGradGrad
 Berny optimization.
 Initialization pass.
                           ----------------------------
                           !    Initial Parameters    !
                           ! (Angstroms and Degrees)  !
 --------------------------                            --------------------------
 ! Name  Definition              Value          Derivative Info.                !
 --------------------------------------------------------------------------------
 ! R1    R(1,9)                  1.4909         estimate D2E/DX2                !
 ! R2    R(1,11)                 1.0897         estimate D2E/DX2                !
 ! R3    R(1,12)                 1.0903         estimate D2E/DX2                !
 ! R4    R(1,13)                 1.0899         estimate D2E/DX2                !
 ! R5    R(2,3)                  1.4033         estimate D2E/DX2                !
 ! R6    R(2,6)                  1.3895         estimate D2E/DX2                !
 ! R7    R(2,14)                 1.0803         estimate D2E/DX2                !
 ! R8    R(3,4)                  1.3793         estimate D2E/DX2                !
 ! R9    R(3,15)                 1.0802         estimate D2E/DX2                !
 ! R10   R(4,5)                  1.3966         estimate D2E/DX2                !
 ! R11   R(4,16)                 1.0801         estimate D2E/DX2                !
 ! R12   R(5,7)                  1.3867         estimate D2E/DX2                !
 ! R13   R(5,10)                 1.3569         estimate D2E/DX2                !
 ! R14   R(6,7)                  1.412          estimate D2E/DX2                !
 ! R15   R(6,17)                 1.0797         estimate D2E/DX2                !
 ! R16   R(7,8)                  1.4938         estimate D2E/DX2                !
 ! R17   R(8,9)                  1.5469         estimate D2E/DX2                !
 ! R18   R(8,18)                 1.0902         estimate D2E/DX2                !
 ! R19   R(8,19)                 1.0902         estimate D2E/DX2                !
 ! R20   R(9,20)                 1.0896         estimate D2E/DX2                !
 ! R21   R(9,21)                 1.0894         estimate D2E/DX2                !
 ! R22   R(10,22)                0.9602         estimate D2E/DX2                !
 ! A1    A(9,1,11)             109.5238         estimate D2E/DX2                !
 ! A2    A(9,1,12)             109.4809         estimate D2E/DX2                !
 ! A3    A(9,1,13)             109.5222         estimate D2E/DX2                !
 ! A4    A(11,1,12)            109.4566         estimate D2E/DX2                !
 ! A5    A(11,1,13)            109.3944         estimate D2E/DX2                !
 ! A6    A(12,1,13)            109.4494         estimate D2E/DX2                !
 ! A7    A(3,2,6)              120.408          estimate D2E/DX2                !
 ! A8    A(3,2,14)             119.9951         estimate D2E/DX2                !
 ! A9    A(6,2,14)             119.597          estimate D2E/DX2                !
 ! A10   A(2,3,4)              122.1466         estimate D2E/DX2                !
 ! A11   A(2,3,15)             119.9939         estimate D2E/DX2                !
 ! A12   A(4,3,15)             117.8596         estimate D2E/DX2                !
 ! A13   A(3,4,5)              117.5154         estimate D2E/DX2                !
 ! A14   A(3,4,16)             119.9831         estimate D2E/DX2                !
 ! A15   A(5,4,16)             122.5015         estimate D2E/DX2                !
 ! A16   A(4,5,7)              121.1826         estimate D2E/DX2                !
 ! A17   A(4,5,10)             119.8244         estimate D2E/DX2                !
 ! A18   A(7,5,10)             118.8673         estimate D2E/DX2                !
 ! A19   A(2,6,7)              117.4491         estimate D2E/DX2                !
 ! A20   A(2,6,17)             119.9984         estimate D2E/DX2                !
 ! A21   A(7,6,17)             122.5525         estimate D2E/DX2                !
 ! A22   A(5,7,6)              121.203          estimate D2E/DX2                !
 ! A23   A(5,7,8)              122.4753         estimate D2E/DX2                !
 ! A24   A(6,7,8)              116.2081         estimate D2E/DX2                !
 ! A25   A(7,8,9)              103.7044         estimate D2E/DX2                !
 ! A26   A(7,8,18)             109.3147         estimate D2E/DX2                !
 ! A27   A(7,8,19)             109.2776         estimate D2E/DX2                !
 ! A28   A(9,8,18)             109.3076         estimate D2E/DX2                !
 ! A29   A(9,8,19)             109.3141         estimate D2E/DX2                !
 ! A30   A(18,8,19)            115.2887         estimate D2E/DX2                !
 ! A31   A(1,9,8)              113.4823         estimate D2E/DX2                !
 ! A32   A(1,9,20)             109.378          estimate D2E/DX2                !
 ! A33   A(1,9,21)             109.3804         estimate D2E/DX2                !
 ! A34   A(8,9,20)             109.404          estimate D2E/DX2                !
 ! A35   A(8,9,21)             109.3797         estimate D2E/DX2                !
 ! A36   A(20,9,21)            105.5089         estimate D2E/DX2                !
 ! A37   A(5,10,22)            109.5148         estimate D2E/DX2                !
 ! D1    D(11,1,9,8)           179.9895         estimate D2E/DX2                !
 ! D2    D(11,1,9,20)           57.5246         estimate D2E/DX2                !
 ! D3    D(11,1,9,21)          -57.5752         estimate D2E/DX2                !
 ! D4    D(12,1,9,8)           -59.9903         estimate D2E/DX2                !
 ! D5    D(12,1,9,20)          177.5448         estimate D2E/DX2                !
 ! D6    D(12,1,9,21)           62.445          estimate D2E/DX2                !
 ! D7    D(13,1,9,8)            60.0201         estimate D2E/DX2                !
 ! D8    D(13,1,9,20)          -62.4448         estimate D2E/DX2                !
 ! D9    D(13,1,9,21)         -177.5446         estimate D2E/DX2                !
 ! D10   D(6,2,3,4)             -3.0374         estimate D2E/DX2                !
 ! D11   D(6,2,3,15)           176.955          estimate D2E/DX2                !
 ! D12   D(14,2,3,4)           176.9655         estimate D2E/DX2                !
 ! D13   D(14,2,3,15)           -3.042          estimate D2E/DX2                !
 ! D14   D(3,2,6,7)              3.7185         estimate D2E/DX2                !
 ! D15   D(3,2,6,17)          -176.2719         estimate D2E/DX2                !
 ! D16   D(14,2,6,7)          -176.2845         estimate D2E/DX2                !
 ! D17   D(14,2,6,17)            3.7252         estimate D2E/DX2                !
 ! D18   D(2,3,4,5)              0.653          estimate D2E/DX2                !
 ! D19   D(2,3,4,16)          -179.3465         estimate D2E/DX2                !
 ! D20   D(15,3,4,5)          -179.3396         estimate D2E/DX2                !
 ! D21   D(15,3,4,16)            0.6609         estimate D2E/DX2                !
 ! D22   D(3,4,5,7)              0.8697         estimate D2E/DX2                !
 ! D23   D(3,4,5,10)           176.747          estimate D2E/DX2                !
 ! D24   D(16,4,5,7)          -179.1308         estimate D2E/DX2                !
 ! D25   D(16,4,5,10)           -3.2535         estimate D2E/DX2                !
 ! D26   D(4,5,7,6)             -0.0518         estimate D2E/DX2                !
 ! D27   D(4,5,7,8)            175.9245         estimate D2E/DX2                !
 ! D28   D(10,5,7,6)          -175.9677         estimate D2E/DX2                !
 ! D29   D(10,5,7,8)             0.0086         estimate D2E/DX2                !
 ! D30   D(4,5,10,22)          179.975          estimate D2E/DX2                !
 ! D31   D(7,5,10,22)           -4.0524         estimate D2E/DX2                !
 ! D32   D(2,6,7,5)             -2.2463         estimate D2E/DX2                !
 ! D33   D(2,6,7,8)           -178.4631         estimate D2E/DX2                !
 ! D34   D(17,6,7,5)           177.7438         estimate D2E/DX2                !
 ! D35   D(17,6,7,8)             1.5269         estimate D2E/DX2                !
 ! D36   D(5,7,8,9)            -79.191          estimate D2E/DX2                !
 ! D37   D(5,7,8,18)           164.3157         estimate D2E/DX2                !
 ! D38   D(5,7,8,19)            37.2932         estimate D2E/DX2                !
 ! D39   D(6,7,8,9)             96.9732         estimate D2E/DX2                !
 ! D40   D(6,7,8,18)           -19.52           estimate D2E/DX2                !
 ! D41   D(6,7,8,19)          -146.5426         estimate D2E/DX2                !
 ! D42   D(7,8,9,1)           -174.9066         estimate D2E/DX2                !
 ! D43   D(7,8,9,20)           -52.4561         estimate D2E/DX2                !
 ! D44   D(7,8,9,21)            62.6577         estimate D2E/DX2                !
 ! D45   D(18,8,9,1)           -58.4083         estimate D2E/DX2                !
 ! D46   D(18,8,9,20)           64.0422         estimate D2E/DX2                !
 ! D47   D(18,8,9,21)          179.156          estimate D2E/DX2                !
 ! D48   D(19,8,9,1)            68.6349         estimate D2E/DX2                !
 ! D49   D(19,8,9,20)         -168.9146         estimate D2E/DX2                !
 ! D50   D(19,8,9,21)          -53.8008         estimate D2E/DX2                !
 --------------------------------------------------------------------------------
 Trust Radius=3.00D-01 FncErr=1.00D-07 GrdErr=1.00D-06
 Number of steps in this run=    119 maximum allowed number of steps=    132.
 GradGradGradGradGradGradGradGradGradGradGradGradGradGradGradGradGradGrad

                          Input orientation:                          
 ---------------------------------------------------------------------
 Center     Atomic      Atomic             Coordinates (Angstroms)
 Number     Number       Type             X           Y           Z
 ---------------------------------------------------------------------
      1          6           0       24.294000  -24.124000   -0.071000
      2          6           0       21.553000  -27.214000   -4.112000
      3          6           0       22.068000  -26.747000   -5.331000
      4          6           0       22.671000  -25.512000   -5.448000
      5          6           0       22.769000  -24.730000   -4.295000
      6          6           0       21.693000  -26.459000   -2.954000
      7          6           0       22.294000  -25.187000   -3.075000
      8          6           0       22.463000  -24.414000   -1.808000
      9          6           0       23.925000  -24.704000   -1.394000
     10          8           0       23.412000  -23.536000   -4.342000
     11          1           0       25.332000  -24.366000    0.156000
     12          1           0       24.172000  -23.041000   -0.102000
     13          1           0       23.648000  -24.540000    0.702000
     14          1           0       21.044000  -28.166000   -4.070000
     15          1           0       21.999000  -27.361000   -6.217000
     16          1           0       23.046000  -25.183000   -6.406000
     17          1           0       21.348000  -26.851000   -2.009000
     18          1           0       21.788000  -24.812000   -1.050000
     19          1           0       22.352000  -23.350000   -2.018000
     20          1           0       24.089000  -25.781000   -1.375000
     21          1           0       24.600000  -24.320000   -2.158000
     22          1           0       23.391000  -23.126000   -3.474000
 ---------------------------------------------------------------------
                    Distance matrix (angstroms):
                    1          2          3          4          5
     1  C    0.000000
     2  C    5.778483   0.000000
     3  C    6.285126   1.403309   0.000000
     4  C    5.785568   2.435493   1.379320   0.000000
     5  C    4.531560   2.771714   2.373391   1.396616   0.000000
     6  C    4.530907   1.389456   2.423571   2.841360   2.438339
     7  C    3.762178   2.394406   2.752129   2.424641   1.386677
     8  C    2.540439   3.738518   4.243871   3.807685   2.525601
     9  C    1.490936   4.394771   4.808562   4.319756   3.122949
    10  O    4.400581   4.127525   3.618698   2.382623   1.356943
    11  H    1.089742   6.372423   6.813958   6.308649   5.149065
    12  H    1.090291   6.352416   6.745643   6.077710   4.733115
    13  H    1.089909   5.891850   6.615462   6.302524   5.077278
    14  H    6.549219   1.080347   2.156909   3.404369   3.851278
    15  H    7.315635   2.156745   1.080163   2.112285   3.348006
    16  H    6.543028   3.408291   2.134995   1.080106   2.176754
    17  H    4.457722   2.143922   3.400721   3.920455   3.426905
    18  H    2.777017   3.898804   4.706335   4.540054   3.391034
    19  H    2.856790   4.466960   4.753550   4.067051   2.694999
    20  H    2.118511   3.996993   4.546156   4.321159   3.372447
    21  H    2.118401   4.634389   4.729618   3.995748   2.843841
    22  H    3.659484   4.527365   4.279068   3.179319   1.906237
                    6          7          8          9         10
     6  C    0.000000
     7  C    1.412029   0.000000
     8  C    2.467436   1.493780   0.000000
     9  C    3.239668   2.391487   1.546913   0.000000
    10  O    3.664073   2.362417   2.844757   3.212179   0.000000
    11  H    5.224468   4.510304   3.477177   2.120470   4.960575
    12  H    5.095299   4.119579   2.777813   2.120340   4.335923
    13  H    4.568470   4.064192   2.778525   2.120576   5.148364
    14  H    2.140212   3.380380   4.605183   5.238948   5.207524
    15  H    3.399178   3.832162   5.323475   5.833563   4.488075
    16  H    3.921108   3.414832   4.698176   5.110991   2.665832
    17  H    1.079682   2.190929   2.687489   3.410097   4.548869
    18  H    2.519296   2.120681   1.090226   2.167203   3.886234
    19  H    3.313044   2.120184   1.090191   2.167261   2.561088
    20  H    2.948515   2.542609   2.167961   1.089581   3.781725
    21  H    3.695888   2.628729   2.167511   1.089393   2.606886
    22  H    3.776572   2.368614   2.301235   2.664890   0.960190
                   11         12         13         14         15
    11  H    0.000000
    12  H    1.779828   0.000000
    13  H    1.778833   1.779886   0.000000
    14  H    7.119411   7.196877   6.534575   0.000000
    15  H    7.790638   7.795996   7.651784   2.483880   0.000000
    16  H    6.996651   6.752515   7.162368   4.285229   2.423967
    17  H    5.170561   5.111529   4.240312   2.463608   4.288492
    18  H    3.770051   3.117467   2.569647   4.574194   5.765398
    19  H    3.826086   2.660627   3.239462   5.395871   5.817588
    20  H    2.427187   3.022419   2.459368   4.714157   5.505403
    21  H    2.427455   2.458894   3.022301   5.576074   5.699856
    22  H    4.299067   3.462307   4.416381   5.591532   5.234208
                   16         17         18         19         20
    16  H    0.000000
    17  H    4.999904   0.000000
    18  H    5.514249   2.295823   0.000000
    19  H    4.805837   3.642128   1.841891   0.000000
    20  H    5.172660   3.009973   2.517774   3.056203   0.000000
    21  H    4.604909   4.123550   3.062201   2.452347   1.734569
    22  H    3.598180   4.493963   3.359759   1.802674   3.455724
                   21         22
    21  H    0.000000
    22  H    2.149226   0.000000
 Stoichiometry    C9H12O
 Framework group  C1[X(C9H12O)]
 Deg. of freedom    60
 Full point group                 C1      NOp   1
 Largest Abelian subgroup         C1      NOp   1
 Largest concise Abelian subgroup C1      NOp   1
                         Standard orientation:                         
 ---------------------------------------------------------------------
 Center     Atomic      Atomic             Coordinates (Angstroms)
 Number     Number       Type             X           Y           Z
 ---------------------------------------------------------------------
      1          6           0        3.553713   -0.324492   -0.427448
      2          6           0       -2.101998   -1.459414   -0.087233
      3          6           0       -2.730881   -0.245839   -0.405066
      4          6           0       -2.084190    0.967313   -0.292919
      5          6           0       -0.756704    0.953174    0.140807
      6          6           0       -0.766977   -1.480115    0.297318
      7          6           0       -0.108466   -0.238091    0.429854
      8          6           0        1.335112   -0.294005    0.809770
      9          6           0        2.075129   -0.171875   -0.543152
     10          8           0       -0.055209    2.112967    0.204681
     11          1           0        4.008059   -0.227870   -1.413233
     12          1           0        3.948593    0.448919    0.231823
     13          1           0        3.787429   -1.306265   -0.015865
     14          1           0       -2.656247   -2.385202   -0.140843
     15          1           0       -3.754324   -0.242251   -0.750471
     16          1           0       -2.605295    1.881372   -0.536998
     17          1           0       -0.272984   -2.422209    0.482093
     18          1           0        1.553759   -1.265392    1.253835
     19          1           0        1.577115    0.567693    1.432207
     20          1           0        1.687806   -0.918045   -1.236259
     21          1           0        1.845499    0.792414   -0.995029
     22          1           0        0.833834    1.933160    0.519701
 ---------------------------------------------------------------------
 Rotational constants (GHZ):      2.4734449      0.9193741      0.7292545
 Standard basis: 6-31G(d) (6D, 7F)
 There are   174 symmetry adapted cartesian basis functions of A   symmetry.
 There are   174 symmetry adapted basis functions of A   symmetry.
   174 basis functions,   328 primitive gaussians,   174 cartesian basis functions
    37 alpha electrons       37 beta electrons
       nuclear repulsion energy       514.7749205993 Hartrees.
 NAtoms=   22 NActive=   22 NUniq=   22 SFac= 1.00D+00 NAtFMM=   60 NAOKFM=F Big=F
 Integral buffers will be    131072 words long.
 Raffenetti 2 integral format.
 Two-electron integral symmetry is turned on.
 One-electron integrals computed using PRISM.
 NBasis=   174 RedAO= T EigKep=  4.28D-04  NBF=   174
 NBsUse=   174 1.00D-06 EigRej= -1.00D+00 NBFU=   174
 ExpMin= 1.61D-01 ExpMax= 5.48D+03 ExpMxC= 8.25D+02 IAcc=1 IRadAn=         1 AccDes= 0.00D+00
 Harris functional with IExCor=  402 and IRadAn=       1 diagonalized for initial guess.
 HarFok:  IExCor=  402 AccDes= 0.00D+00 IRadAn=         1 IDoV= 1 UseB2=F ITyADJ=14
 ICtDFT=  3500011 ScaDFX=  1.000000  1.000000  1.000000  1.000000
 FoFCou: FMM=F IPFlag=           0 FMFlag=      100000 FMFlg1=           0
         NFxFlg=           0 DoJE=T BraDBF=F KetDBF=T FulRan=T
         wScrn=  0.000000 ICntrl=     500 IOpCl=  0 I1Cent=   200000004 NGrid=           0
         NMat0=    1 NMatS0=      1 NMatT0=    0 NMatD0=    1 NMtDS0=    0 NMtDT0=    0
 Petite list used in FoFCou.
 Keep R1 ints in memory in canonical form, NReq=118699273.
 Requested convergence on RMS density matrix=1.00D-08 within 128 cycles.
 Requested convergence on MAX density matrix=1.00D-06.
 Requested convergence on             energy=1.00D-06.
 No special actions if energy rises.
 Integral accuracy reduced to 1.0D-05 until final iterations.
 Initial convergence to 1.0D-05 achieved.  Increase integral accuracy.
 SCF Done:  E(RB3LYP) =  -425.394401202     A.U. after   14 cycles
            NFock= 14  Conv=0.42D-08     -V/T= 2.0088

 **********************************************************************

            Population analysis using the SCF density.

 **********************************************************************

 Orbital symmetries:
       Occupied  (A) (A) (A) (A) (A) (A) (A) (A) (A) (A) (A) (A)
                 (A) (A) (A) (A) (A) (A) (A) (A) (A) (A) (A) (A)
                 (A) (A) (A) (A) (A) (A) (A) (A) (A) (A) (A) (A)
                 (A)
       Virtual   (A) (A) (A) (A) (A) (A) (A) (A) (A) (A) (A) (A)
                 (A) (A) (A) (A) (A) (A) (A) (A) (A) (A) (A) (A)
                 (A) (A) (A) (A) (A) (A) (A) (A) (A) (A) (A) (A)
                 (A) (A) (A) (A) (A) (A) (A) (A) (A) (A) (A) (A)
                 (A) (A) (A) (A) (A) (A) (A) (A) (A) (A) (A) (A)
                 (A) (A) (A) (A) (A) (A) (A) (A) (A) (A) (A) (A)
                 (A) (A) (A) (A) (A) (A) (A) (A) (A) (A) (A) (A)
                 (A) (A) (A) (A) (A) (A) (A) (A) (A) (A) (A) (A)
                 (A) (A) (A) (A) (A) (A) (A) (A) (A) (A) (A) (A)
                 (A) (A) (A) (A) (A) (A) (A) (A) (A) (A) (A) (A)
                 (A) (A) (A) (A) (A) (A) (A) (A) (A) (A) (A) (A)
                 (A) (A) (A) (A) (A)
 The electronic state is 1-A.
 Alpha  occ. eigenvalues --  -19.17212 -10.23941 -10.19402 -10.18376 -10.18312
 Alpha  occ. eigenvalues --  -10.18267 -10.18013 -10.17866 -10.17520 -10.17353
 Alpha  occ. eigenvalues --   -1.06161  -0.85001  -0.80682  -0.74931  -0.73308
 Alpha  occ. eigenvalues --   -0.68242  -0.60697  -0.60281  -0.58867  -0.53907
 Alpha  occ. eigenvalues --   -0.49893  -0.47132  -0.45454  -0.43620  -0.43198
 Alpha  occ. eigenvalues --   -0.42131  -0.39902  -0.39583  -0.38330  -0.36701
 Alpha  occ. eigenvalues --   -0.35004  -0.34210  -0.33829  -0.32508  -0.31991
 Alpha  occ. eigenvalues --   -0.23834  -0.21094
 Alpha virt. eigenvalues --    0.00534   0.02116   0.05704   0.10072   0.11156
 Alpha virt. eigenvalues --    0.12658   0.14655   0.15895   0.16900   0.17382
 Alpha virt. eigenvalues --    0.17890   0.18486   0.18994   0.19368   0.21321
 Alpha virt. eigenvalues --    0.23837   0.24527   0.25824   0.27476   0.31944
 Alpha virt. eigenvalues --    0.33181   0.36634   0.38275   0.48654   0.50692
 Alpha virt. eigenvalues --    0.51486   0.52194   0.53825   0.54322   0.55415
 Alpha virt. eigenvalues --    0.57458   0.59608   0.60920   0.61168   0.61516
 Alpha virt. eigenvalues --    0.62058   0.62853   0.63994   0.65859   0.66931
 Alpha virt. eigenvalues --    0.67405   0.70610   0.73555   0.74568   0.79553
 Alpha virt. eigenvalues --    0.81945   0.82136   0.83482   0.84525   0.85920
 Alpha virt. eigenvalues --    0.86639   0.87587   0.89604   0.91837   0.92405
 Alpha virt. eigenvalues --    0.93841   0.94368   0.94515   0.96982   0.97779
 Alpha virt. eigenvalues --    0.99735   1.04461   1.05474   1.08725   1.10579
 Alpha virt. eigenvalues --    1.13247   1.16256   1.19896   1.23366   1.25700
 Alpha virt. eigenvalues --    1.29736   1.31362   1.38204   1.40164   1.40757
 Alpha virt. eigenvalues --    1.42339   1.45619   1.46241   1.49705   1.50982
 Alpha virt. eigenvalues --    1.58582   1.66266   1.70007   1.74392   1.77186
 Alpha virt. eigenvalues --    1.78968   1.81359   1.84269   1.89616   1.90096
 Alpha virt. eigenvalues --    1.92939   1.93811   1.95194   1.97949   2.00746
 Alpha virt. eigenvalues --    2.00885   2.03130   2.05203   2.09583   2.12444
 Alpha virt. eigenvalues --    2.13942   2.17995   2.22731   2.25914   2.26927
 Alpha virt. eigenvalues --    2.27370   2.31002   2.32162   2.35772   2.36883
 Alpha virt. eigenvalues --    2.41812   2.42095   2.48441   2.54784   2.56208
 Alpha virt. eigenvalues --    2.58333   2.65227   2.67597   2.70974   2.72321
 Alpha virt. eigenvalues --    2.77766   2.78591   2.84556   2.86845   3.00980
 Alpha virt. eigenvalues --    3.16917   3.44071   4.02059   4.10534   4.15539
 Alpha virt. eigenvalues --    4.16311   4.24114   4.32582   4.40602   4.43612
 Alpha virt. eigenvalues --    4.54476   4.79229
          Condensed to atoms (all electrons):
               1          2          3          4          5          6
     1  C    5.070931   0.000001  -0.000001   0.000001   0.000145   0.000223
     2  C    0.000001   4.884006   0.546154  -0.029088  -0.048014   0.531872
     3  C   -0.000001   0.546154   4.844605   0.545803  -0.016107  -0.032829
     4  C    0.000001  -0.029088   0.545803   4.975873   0.509011  -0.043035
     5  C    0.000145  -0.048014  -0.016107   0.509011   4.582341  -0.003377
     6  C    0.000223   0.531872  -0.032829  -0.043035  -0.003377   4.946193
     7  C    0.006310  -0.029372  -0.033054  -0.065198   0.492611   0.521489
     8  C   -0.048841   0.007473   0.000336   0.008587  -0.051821  -0.057589
     9  C    0.356406  -0.000126   0.000029   0.000036  -0.003193  -0.008797
    10  O    0.000007   0.000200   0.002983  -0.057995   0.292207   0.004581
    11  H    0.373417   0.000000   0.000000   0.000000  -0.000008  -0.000006
    12  H    0.378349   0.000000   0.000000   0.000000   0.000006  -0.000006
    13  H    0.381402   0.000000   0.000000   0.000000  -0.000005   0.000017
    14  H    0.000000   0.355117  -0.042446   0.004467   0.001129  -0.042430
    15  H    0.000000  -0.043678   0.359507  -0.044561   0.005120   0.005185
    16  H    0.000000   0.004907  -0.043892   0.347143  -0.034816   0.000369
    17  H   -0.000060  -0.042792   0.004645   0.000463   0.003847   0.354974
    18  H   -0.003629   0.000284   0.000022  -0.000201   0.003397  -0.004456
    19  H   -0.000914  -0.000260   0.000002  -0.000012  -0.004523   0.004308
    20  H   -0.040853  -0.000207  -0.000016  -0.000109  -0.000240   0.005173
    21  H   -0.041960   0.000080  -0.000011  -0.000473   0.001810  -0.000025
    22  H   -0.000239  -0.000042  -0.000227   0.006483  -0.027248   0.000311
               7          8          9         10         11         12
     1  C    0.006310  -0.048841   0.356406   0.000007   0.373417   0.378349
     2  C   -0.029372   0.007473  -0.000126   0.000200   0.000000   0.000000
     3  C   -0.033054   0.000336   0.000029   0.002983   0.000000   0.000000
     4  C   -0.065198   0.008587   0.000036  -0.057995   0.000000   0.000000
     5  C    0.492611  -0.051821  -0.003193   0.292207  -0.000008   0.000006
     6  C    0.521489  -0.057589  -0.008797   0.004581  -0.000006  -0.000006
     7  C    4.920698   0.329524  -0.057637  -0.073518  -0.000226   0.000146
     8  C    0.329524   5.220834   0.359052  -0.011925   0.005150  -0.005158
     9  C   -0.057637   0.359052   5.053555  -0.004880  -0.029726  -0.038929
    10  O   -0.073518  -0.011925  -0.004880   8.249717   0.000001   0.000018
    11  H   -0.000226   0.005150  -0.029726   0.000001   0.569166  -0.028976
    12  H    0.000146  -0.005158  -0.038929   0.000018  -0.028976   0.583564
    13  H    0.000012  -0.005544  -0.039519  -0.000003  -0.029011  -0.030913
    14  H    0.004441  -0.000247  -0.000001   0.000003   0.000000   0.000000
    15  H    0.000611   0.000002   0.000000  -0.000070   0.000000   0.000000
    16  H    0.006174  -0.000157   0.000003  -0.001006   0.000000   0.000000
    17  H   -0.041599  -0.009668   0.000353  -0.000054   0.000002   0.000001
    18  H   -0.030070   0.364767  -0.035197   0.000357  -0.000018  -0.000322
    19  H   -0.040637   0.346138  -0.050505   0.001455  -0.000106   0.004193
    20  H   -0.003330  -0.041289   0.382684   0.000187  -0.003514   0.005988
    21  H   -0.008909  -0.040924   0.377658   0.008954  -0.003356  -0.004745
    22  H   -0.015491   0.014347   0.001345   0.239473  -0.000005  -0.000003
              13         14         15         16         17         18
     1  C    0.381402   0.000000   0.000000   0.000000  -0.000060  -0.003629
     2  C    0.000000   0.355117  -0.043678   0.004907  -0.042792   0.000284
     3  C    0.000000  -0.042446   0.359507  -0.043892   0.004645   0.000022
     4  C    0.000000   0.004467  -0.044561   0.347143   0.000463  -0.000201
     5  C   -0.000005   0.001129   0.005120  -0.034816   0.003847   0.003397
     6  C    0.000017  -0.042430   0.005185   0.000369   0.354974  -0.004456
     7  C    0.000012   0.004441   0.000611   0.006174  -0.041599  -0.030070
     8  C   -0.005544  -0.000247   0.000002  -0.000157  -0.009668   0.364767
     9  C   -0.039519  -0.000001   0.000000   0.000003   0.000353  -0.035197
    10  O   -0.000003   0.000003  -0.000070  -0.001006  -0.000054   0.000357
    11  H   -0.029011   0.000000   0.000000   0.000000   0.000002  -0.000018
    12  H   -0.030913   0.000000   0.000000   0.000000   0.000001  -0.000322
    13  H    0.575443   0.000000   0.000000   0.000000   0.000001   0.004999
    14  H    0.000000   0.612790  -0.005984  -0.000172  -0.005191  -0.000017
    15  H    0.000000  -0.005984   0.607565  -0.007089  -0.000196   0.000000
    16  H    0.000000  -0.000172  -0.007089   0.591039   0.000017   0.000002
    17  H    0.000001  -0.005191  -0.000196   0.000017   0.602822   0.006238
    18  H    0.004999  -0.000017   0.000000   0.000002   0.006238   0.559361
    19  H   -0.000317   0.000005   0.000000  -0.000001   0.000146  -0.022437
    20  H   -0.005121   0.000008   0.000000   0.000001   0.000687  -0.003492
    21  H    0.005899   0.000000   0.000000   0.000005  -0.000007   0.005320
    22  H    0.000012   0.000000   0.000006  -0.000223  -0.000018  -0.000246
              19         20         21         22
     1  C   -0.000914  -0.040853  -0.041960  -0.000239
     2  C   -0.000260  -0.000207   0.000080  -0.000042
     3  C    0.000002  -0.000016  -0.000011  -0.000227
     4  C   -0.000012  -0.000109  -0.000473   0.006483
     5  C   -0.004523  -0.000240   0.001810  -0.027248
     6  C    0.004308   0.005173  -0.000025   0.000311
     7  C   -0.040637  -0.003330  -0.008909  -0.015491
     8  C    0.346138  -0.041289  -0.040924   0.014347
     9  C   -0.050505   0.382684   0.377658   0.001345
    10  O    0.001455   0.000187   0.008954   0.239473
    11  H   -0.000106  -0.003514  -0.003356  -0.000005
    12  H    0.004193   0.005988  -0.004745  -0.000003
    13  H   -0.000317  -0.005121   0.005899   0.000012
    14  H    0.000005   0.000008   0.000000   0.000000
    15  H    0.000000   0.000000   0.000000   0.000006
    16  H   -0.000001   0.000001   0.000005  -0.000223
    17  H    0.000146   0.000687  -0.000007  -0.000018
    18  H   -0.022437  -0.003492   0.005320  -0.000246
    19  H    0.622429   0.006132  -0.008575   0.012841
    20  H    0.006132   0.580599  -0.034591  -0.000073
    21  H   -0.008575  -0.034591   0.600710   0.001895
    22  H    0.012841  -0.000073   0.001895   0.353890
 Mulliken charges:
               1
     1  C   -0.430696
     2  C   -0.136515
     3  C   -0.135504
     4  C   -0.157194
     5  C    0.297728
     6  C   -0.182146
     7  C    0.117024
     8  C   -0.383046
     9  C   -0.262611
    10  O   -0.650691
    11  H    0.147216
    12  H    0.136788
    13  H    0.142647
    14  H    0.118526
    15  H    0.123582
    16  H    0.137694
    17  H    0.125389
    18  H    0.155338
    19  H    0.130637
    20  H    0.151377
    21  H    0.141243
    22  H    0.413212
 Sum of Mulliken charges =   0.00000
 Mulliken charges with hydrogens summed into heavy atoms:
               1
     1  C   -0.004044
     2  C   -0.017988
     3  C   -0.011922
     4  C   -0.019500
     5  C    0.297728
     6  C   -0.056756
     7  C    0.117024
     8  C   -0.097071
     9  C    0.030009
    10  O   -0.237480
 Electronic spatial extent (au):  <R**2>=           1638.1988
 Charge=              0.0000 electrons
 Dipole moment (field-independent basis, Debye):
    X=              1.3506    Y=             -0.8394    Z=              0.2717  Tot=              1.6133
 Quadrupole moment (field-independent basis, Debye-Ang):
   XX=            -56.8071   YY=            -59.8741   ZZ=            -62.0209
   XY=              1.3468   XZ=              2.2666   YZ=              0.1658
 Traceless Quadrupole moment (field-independent basis, Debye-Ang):
   XX=              2.7603   YY=             -0.3067   ZZ=             -2.4535
   XY=              1.3468   XZ=              2.2666   YZ=              0.1658
 Octapole moment (field-independent basis, Debye-Ang**2):
  XXX=            -14.4986  YYY=             -5.8727  ZZZ=              0.1976  XYY=              2.8593
  XXY=              7.6980  XXZ=             -5.9665  XZZ=              6.2319  YZZ=              4.9146
  YYZ=              2.5512  XYZ=              2.3128
 Hexadecapole moment (field-independent basis, Debye-Ang**3):
 XXXX=          -1546.1772 YYYY=           -510.0219 ZZZZ=           -160.4311 XXXY=              3.7047
 XXXZ=             20.8165 YYYX=             10.6863 YYYZ=             -1.3190 ZZZX=             -4.3803
 ZZZY=              3.7885 XXYY=           -318.8175 XXZZ=           -288.0833 YYZZ=           -111.8828
 XXYZ=              0.5536 YYXZ=              8.9695 ZZXY=             -1.6016
 N-N= 5.147749205993D+02 E-N=-2.017036360988D+03  KE= 4.216980669030D+02
 Calling FoFJK, ICntrl=      2127 FMM=F ISym2X=0 I1Cent= 0 IOpClX= 0 NMat=1 NMatS=1 NMatT=0.
 ***** Axes restored to original set *****
 -------------------------------------------------------------------
 Center     Atomic                   Forces (Hartrees/Bohr)
 Number     Number              X              Y              Z
 -------------------------------------------------------------------
      1        6           0.003921981    0.004152295    0.007835968
      2        6           0.001877657   -0.004437063   -0.002614201
      3        6          -0.007991871   -0.009729015    0.001276826
      4        6          -0.000434749    0.002864964    0.005765548
      5        6           0.003923901   -0.001921398    0.001039680
      6        6           0.005813690    0.010061228   -0.029670268
      7        6          -0.028873539   -0.023077114    0.018382479
      8        6           0.028902600   -0.013436202   -0.013250490
      9        6          -0.002930109    0.000993351   -0.000983927
     10        8           0.006254385    0.010810614   -0.019198522
     11        1           0.003512766    0.001992918    0.005771218
     12        1           0.001133875    0.004872627    0.005783244
     13        1          -0.000287362    0.001468429    0.006876734
     14        1           0.000098039   -0.005597845   -0.001042877
     15        1          -0.002746844   -0.004117788   -0.003179705
     16        1           0.003319832    0.005019959   -0.000657939
     17        1          -0.002115360    0.002850773    0.005318260
     18        1          -0.004712902    0.010422899    0.002248348
     19        1          -0.009293871    0.007077022    0.012676627
     20        1          -0.002269201   -0.005068339   -0.001370039
     21        1           0.002686154    0.001034913   -0.005164779
     22        1           0.000210928    0.003762774    0.004157817
 -------------------------------------------------------------------
 Cartesian Forces:  Max     0.029670268 RMS     0.009233131

 GradGradGradGradGradGradGradGradGradGradGradGradGradGradGradGradGradGrad
 Berny optimization.
 FormGI is forming the generalized inverse of G from B-inverse, IUseBI=4.
 Internal  Forces:  Max     0.031937592 RMS     0.007914698
 Search for a local minimum.
 Step number   1 out of a maximum of  119
 All quantities printed in internal units (Hartrees-Bohrs-Radians)
 Mixed Optimization -- RFO/linear search
 Second derivative matrix not updated -- first step.
 ITU=  0
     Eigenvalues ---    0.00230   0.00848   0.00886   0.01626   0.02035
     Eigenvalues ---    0.02088   0.02134   0.02171   0.02194   0.02217
     Eigenvalues ---    0.02243   0.02261   0.02279   0.03570   0.04920
     Eigenvalues ---    0.05391   0.05696   0.06135   0.06137   0.08027
     Eigenvalues ---    0.08615   0.11677   0.12381   0.16000   0.16000
     Eigenvalues ---    0.16000   0.16000   0.16000   0.16000   0.16000
     Eigenvalues ---    0.16000   0.21886   0.21986   0.22101   0.22471
     Eigenvalues ---    0.24475   0.24924   0.24958   0.27915   0.33039
     Eigenvalues ---    0.33347   0.34779   0.34787   0.34791   0.34823
     Eigenvalues ---    0.34843   0.34861   0.34883   0.35952   0.35975
     Eigenvalues ---    0.35981   0.36033   0.41323   0.42245   0.45066
     Eigenvalues ---    0.46859   0.47055   0.48556   0.53570   0.55433
 RFO step:  Lambda=-2.79182187D-02 EMin= 2.30000000D-03
 Linear search not attempted -- first point.
 Maximum step size (   0.300) exceeded in Quadratic search.
    -- Step size scaled by   0.987
 Iteration  1 RMS(Cart)=  0.15177967 RMS(Int)=  0.00375461
 Iteration  2 RMS(Cart)=  0.00633428 RMS(Int)=  0.00096108
 Iteration  3 RMS(Cart)=  0.00001929 RMS(Int)=  0.00096103
 Iteration  4 RMS(Cart)=  0.00000003 RMS(Int)=  0.00096103
 Variable       Old X    -DE/DX   Delta X   Delta X   Delta X     New X
                                 (Linear)    (Quad)   (Total)
    R1        2.81746   0.03021   0.00000   0.08248   0.08248   2.89994
    R2        2.05931   0.00411   0.00000   0.01077   0.01077   2.07009
    R3        2.06035   0.00454   0.00000   0.01194   0.01194   2.07229
    R4        2.05963   0.00449   0.00000   0.01177   0.01177   2.07139
    R5        2.65187  -0.00764   0.00000  -0.01634  -0.01644   2.63543
    R6        2.62569   0.00545   0.00000   0.00973   0.00977   2.63546
    R7        2.04156   0.00485   0.00000   0.01234   0.01234   2.05390
    R8        2.60654   0.01195   0.00000   0.02306   0.02294   2.62947
    R9        2.04121   0.00512   0.00000   0.01304   0.01304   2.05425
   R10        2.63922   0.00414   0.00000   0.00938   0.00935   2.64858
   R11        2.04111   0.00326   0.00000   0.00831   0.00831   2.04941
   R12        2.62044   0.02015   0.00000   0.03977   0.03986   2.66030
   R13        2.56425   0.01641   0.00000   0.02873   0.02873   2.59298
   R14        2.66835  -0.00246   0.00000  -0.00568  -0.00556   2.66279
   R15        2.04030   0.00430   0.00000   0.01092   0.01092   2.05122
   R16        2.82284   0.02664   0.00000   0.07336   0.07336   2.89620
   R17        2.92324   0.00872   0.00000   0.02802   0.02802   2.95126
   R18        2.06023   0.00068   0.00000   0.00177   0.00177   2.06200
   R19        2.06016   0.00541   0.00000   0.01421   0.01421   2.07437
   R20        2.05901   0.00465   0.00000   0.01218   0.01218   2.07119
   R21        2.05865   0.00565   0.00000   0.01480   0.01480   2.07346
   R22        1.81450   0.00536   0.00000   0.00908   0.00908   1.82358
    A1        1.91155   0.00592   0.00000   0.03144   0.03092   1.94247
    A2        1.91080   0.00656   0.00000   0.03445   0.03392   1.94472
    A3        1.91152   0.00529   0.00000   0.02740   0.02695   1.93847
    A4        1.91038  -0.00609   0.00000  -0.03120  -0.03176   1.87862
    A5        1.90929  -0.00562   0.00000  -0.02951  -0.02992   1.87937
    A6        1.91025  -0.00609   0.00000  -0.03272  -0.03315   1.87711
    A7        2.10152  -0.00361   0.00000  -0.01874  -0.01891   2.08261
    A8        2.09431   0.00004   0.00000   0.00009   0.00011   2.09442
    A9        2.08736   0.00357   0.00000   0.01866   0.01870   2.10606
   A10        2.13186  -0.00623   0.00000  -0.02623  -0.02652   2.10534
   A11        2.09429   0.00055   0.00000  -0.00036  -0.00022   2.09407
   A12        2.05704   0.00568   0.00000   0.02659   0.02674   2.08378
   A13        2.05103   0.01007   0.00000   0.04193   0.04172   2.09275
   A14        2.09410   0.00011   0.00000   0.00607   0.00618   2.10028
   A15        2.13805  -0.01018   0.00000  -0.04800  -0.04790   2.09016
   A16        2.11503  -0.00370   0.00000  -0.01048  -0.01081   2.10422
   A17        2.09133  -0.01734   0.00000  -0.06182  -0.06219   2.02914
   A18        2.07463   0.02118   0.00000   0.07526   0.07497   2.14959
   A19        2.04987   0.01819   0.00000   0.06824   0.06832   2.11819
   A20        2.09437  -0.00483   0.00000  -0.01172  -0.01178   2.08259
   A21        2.13894  -0.01336   0.00000  -0.05652  -0.05658   2.08236
   A22        2.11539  -0.01460   0.00000  -0.05240  -0.05231   2.06308
   A23        2.13760   0.00241   0.00000   0.00921   0.00907   2.14667
   A24        2.02821   0.01224   0.00000   0.04424   0.04415   2.07236
   A25        1.80998   0.03194   0.00000   0.15408   0.15034   1.96032
   A26        1.90790  -0.00775   0.00000  -0.01642  -0.01700   1.89091
   A27        1.90725  -0.00363   0.00000   0.02600   0.02251   1.92976
   A28        1.90778  -0.00635   0.00000  -0.02374  -0.02585   1.88193
   A29        1.90789  -0.00604   0.00000  -0.01086  -0.01703   1.89086
   A30        2.01217  -0.00426   0.00000  -0.10163  -0.10310   1.90907
   A31        1.98064   0.00295   0.00000   0.01253   0.01256   1.99320
   A32        1.90901   0.00131   0.00000   0.01276   0.01286   1.92187
   A33        1.90905  -0.00028   0.00000   0.00551   0.00551   1.91456
   A34        1.90946  -0.00347   0.00000  -0.02448  -0.02457   1.88489
   A35        1.90904  -0.00119   0.00000  -0.00674  -0.00686   1.90217
   A36        1.84148   0.00050   0.00000  -0.00053  -0.00075   1.84073
   A37        1.91139   0.00284   0.00000   0.01493   0.01493   1.92632
    D1        3.14141  -0.00065   0.00000  -0.00635  -0.00639   3.13502
    D2        1.00399   0.00082   0.00000   0.00717   0.00711   1.01111
    D3       -1.00488  -0.00035   0.00000  -0.00231  -0.00234  -1.00722
    D4       -1.04703  -0.00045   0.00000  -0.00415  -0.00411  -1.05114
    D5        3.09874   0.00102   0.00000   0.00937   0.00939   3.10813
    D6        1.08987  -0.00015   0.00000  -0.00011  -0.00006   1.08981
    D7        1.04755  -0.00065   0.00000  -0.00629  -0.00629   1.04126
    D8       -1.08987   0.00083   0.00000   0.00722   0.00722  -1.08265
    D9       -3.09874  -0.00034   0.00000  -0.00225  -0.00224  -3.10098
   D10       -0.05301   0.00190   0.00000   0.03468   0.03403  -0.01899
   D11        3.08845   0.00182   0.00000   0.03273   0.03201   3.12046
   D12        3.08863   0.00115   0.00000   0.01952   0.01911   3.10774
   D13       -0.05309   0.00107   0.00000   0.01757   0.01710  -0.03600
   D14        0.06490  -0.00204   0.00000  -0.04463  -0.04511   0.01979
   D15       -3.07652  -0.00154   0.00000  -0.03451  -0.03476  -3.11129
   D16       -3.07674  -0.00129   0.00000  -0.02954  -0.03009  -3.10683
   D17        0.06502  -0.00079   0.00000  -0.01941  -0.01974   0.04527
   D18        0.01140   0.00003   0.00000  -0.00400  -0.00475   0.00664
   D19       -3.13019   0.00020   0.00000  -0.00108  -0.00169  -3.13188
   D20       -3.13007   0.00010   0.00000  -0.00209  -0.00275  -3.13282
   D21        0.01154   0.00027   0.00000   0.00084   0.00031   0.01184
   D22        0.01518  -0.00060   0.00000  -0.01031  -0.00991   0.00527
   D23        3.08482   0.00267   0.00000   0.04125   0.03977   3.12458
   D24       -3.12642  -0.00078   0.00000  -0.01332  -0.01295  -3.13937
   D25       -0.05678   0.00249   0.00000   0.03824   0.03672  -0.02006
   D26       -0.00090  -0.00046   0.00000  -0.00438  -0.00365  -0.00455
   D27        3.07046   0.00088   0.00000   0.01594   0.01622   3.08668
   D28       -3.07121  -0.00215   0.00000  -0.04997  -0.05106  -3.12227
   D29        0.00015  -0.00082   0.00000  -0.02965  -0.03119  -0.03104
   D30        3.14116  -0.00157   0.00000  -0.03261  -0.03280   3.10836
   D31       -0.07073   0.00064   0.00000   0.01439   0.01457  -0.05615
   D32       -0.03920   0.00178   0.00000   0.03158   0.03113  -0.00807
   D33       -3.11477   0.00082   0.00000   0.01353   0.01328  -3.10149
   D34        3.10221   0.00126   0.00000   0.02118   0.02080   3.12301
   D35        0.02665   0.00031   0.00000   0.00314   0.00294   0.02959
   D36       -1.38214  -0.00126   0.00000  -0.02988  -0.03154  -1.41368
   D37        2.86785  -0.00688   0.00000  -0.07429  -0.07519   2.79266
   D38        0.65089   0.00653   0.00000   0.04817   0.04990   0.70079
   D39        1.69250  -0.00098   0.00000  -0.01410  -0.01521   1.67729
   D40       -0.34069  -0.00660   0.00000  -0.05852  -0.05887  -0.39955
   D41       -2.55765   0.00681   0.00000   0.06395   0.06623  -2.49142
   D42       -3.05270   0.00112   0.00000   0.00705   0.00732  -3.04538
   D43       -0.91553   0.00230   0.00000   0.01415   0.01429  -0.90124
   D44        1.09358   0.00032   0.00000  -0.00377  -0.00346   1.09013
   D45       -1.01942   0.00576   0.00000   0.05659   0.05614  -0.96328
   D46        1.11775   0.00693   0.00000   0.06369   0.06312   1.18086
   D47        3.12686   0.00495   0.00000   0.04577   0.04537  -3.11096
   D48        1.19790  -0.00838   0.00000  -0.09701  -0.09674   1.10116
   D49       -2.94812  -0.00721   0.00000  -0.08991  -0.08977  -3.03788
   D50       -0.93900  -0.00919   0.00000  -0.10783  -0.10752  -1.04652
         Item               Value     Threshold  Converged?
 Maximum Force            0.031938     0.000450     NO 
 RMS     Force            0.007915     0.000300     NO 
 Maximum Displacement     0.555958     0.001800     NO 
 RMS     Displacement     0.148818     0.001200     NO 
 Predicted change in Energy=-1.629789D-02
 GradGradGradGradGradGradGradGradGradGradGradGradGradGradGradGradGradGrad

                          Input orientation:                          
 ---------------------------------------------------------------------
 Center     Atomic      Atomic             Coordinates (Angstroms)
 Number     Number       Type             X           Y           Z
 ---------------------------------------------------------------------
      1          6           0       24.282793  -24.048123    0.107902
      2          6           0       21.504438  -27.264039   -4.201384
      3          6           0       21.941335  -26.779851   -5.434111
      4          6           0       22.559733  -25.536957   -5.528727
      5          6           0       22.754833  -24.763968   -4.375986
      6          6           0       21.713406  -26.499089   -3.054144
      7          6           0       22.335750  -25.236492   -3.117847
      8          6           0       22.583420  -24.470403   -1.813764
      9          6           0       24.029177  -24.686790   -1.264224
     10          8           0       23.390268  -23.560668   -4.552247
     11          1           0       25.306617  -24.234162    0.450200
     12          1           0       24.134759  -22.961974    0.077696
     13          1           0       23.600241  -24.453848    0.863562
     14          1           0       20.994450  -28.222097   -4.143605
     15          1           0       21.801639  -27.375997   -6.332333
     16          1           0       22.889563  -25.161078   -6.491054
     17          1           0       21.398881  -26.888491   -2.090991
     18          1           0       21.882115  -24.836258   -1.062125
     19          1           0       22.428326  -23.394059   -1.963408
     20          1           0       24.215924  -25.765800   -1.218060
     21          1           0       24.750303  -24.295959   -1.993013
     22          1           0       23.453026  -23.087895   -3.713338
 ---------------------------------------------------------------------
                    Distance matrix (angstroms):
                    1          2          3          4          5
     1  C    0.000000
     2  C    6.052381   0.000000
     3  C    6.607470   1.394608   0.000000
     4  C    6.079238   2.420393   1.391458   0.000000
     5  C    4.790860   2.800773   2.417683   1.401566   0.000000
     6  C    4.754736   1.394624   2.407285   2.786670   2.417123
     7  C    3.950779   2.444602   2.811155   2.439833   1.407772
     8  C    2.599805   3.830057   4.341973   3.865106   2.584675
     9  C    1.534583   4.652251   5.111550   4.589993   3.363476
    10  O    4.769821   4.170662   3.638713   2.355636   1.372144
    11  H    1.095443   6.728593   7.240910   6.707475   5.484922
    12  H    1.096607   6.613387   7.054595   6.367356   4.998666
    13  H    1.096135   6.159809   6.915413   6.566364   5.316366
    14  H    6.805187   1.086877   2.154546   3.402742   3.887365
    15  H    7.662081   2.154485   1.087063   2.145357   3.399789
    16  H    6.835640   3.403469   2.153298   1.084503   2.156238
    17  H    4.606491   2.146145   3.388585   3.871982   3.401971
    18  H    2.784488   3.986441   4.784905   4.571725   3.427613
    19  H    2.856076   4.564959   4.873040   4.161823   2.793526
    20  H    2.170958   4.300826   4.896646   4.623547   3.620905
    21  H    2.166525   4.921590   5.089320   4.340501   3.143167
    22  H    4.026466   4.634153   4.344745   3.176714   1.932821
                    6          7          8          9         10
     6  C    0.000000
     7  C    1.409085   0.000000
     8  C    2.532002   1.532601   0.000000
     9  C    3.442534   2.570173   1.561739   0.000000
    10  O    3.700068   2.444974   2.996316   3.533758   0.000000
    11  H    5.506495   4.749914   3.549246   2.185401   5.399117
    12  H    5.308725   4.315248   2.873958   2.187895   4.727480
    13  H    4.805369   4.250069   2.863961   2.183053   5.492981
    14  H    2.161615   3.430029   4.693420   5.477116   5.256982
    15  H    3.394595   3.898162   5.428731   6.154631   4.499909
    16  H    3.871172   3.419198   4.737910   5.370607   2.563395
    17  H    1.085460   2.158994   2.706868   3.528383   4.593235
    18  H    2.600309   2.142887   1.091164   2.161727   4.010312
    19  H    3.367792   2.176203   1.097709   2.173186   2.766799
    20  H    3.189281   2.724778   2.167483   1.096024   4.081803
    21  H    3.899042   2.824876   2.181271   1.097226   2.989988
    22  H    3.885494   2.493870   2.505180   2.981036   0.964997
                   11         12         13         14         15
    11  H    0.000000
    12  H    1.769315   0.000000
    13  H    1.769421   1.768893   0.000000
    14  H    7.456639   7.439746   6.786868   0.000000
    15  H    8.255831   8.124993   7.972128   2.481525   0.000000
    16  H    7.408261   7.038114   7.422642   4.297884   2.472778
    17  H    5.364095   5.254119   4.416204   2.480987   4.288223
    18  H    3.791684   3.144287   2.608921   4.663408   5.850798
    19  H    3.849135   2.695314   3.238564   5.488097   5.944414
    20  H    2.513686   3.089824   2.536421   4.997010   5.880246
    21  H    2.506510   2.538946   3.083438   5.843462   6.083662
    22  H    4.699445   3.853901   4.778652   5.708744   5.289048
                   16         17         18         19         20
    16  H    0.000000
    17  H    4.956474   0.000000
    18  H    5.531159   2.346005   0.000000
    19  H    4.882076   3.645146   1.786224   0.000000
    20  H    5.470776   3.155657   2.516949   3.062059   0.000000
    21  H    4.944003   4.238260   3.063492   2.491160   1.745435
    22  H    3.511593   4.614765   3.543087   2.050854   3.738931
                   21         22
    21  H    0.000000
    22  H    2.470196   0.000000
 Stoichiometry    C9H12O
 Framework group  C1[X(C9H12O)]
 Deg. of freedom    60
 Full point group                 C1      NOp   1
 Largest Abelian subgroup         C1      NOp   1
 Largest concise Abelian subgroup C1      NOp   1
                         Standard orientation:                         
 ---------------------------------------------------------------------
 Center     Atomic      Atomic             Coordinates (Angstroms)
 Number     Number       Type             X           Y           Z
 ---------------------------------------------------------------------
      1          6           0        3.777587   -0.304688   -0.295114
      2          6           0       -2.148212   -1.516610   -0.077256
      3          6           0       -2.829598   -0.330876   -0.350535
      4          6           0       -2.181595    0.896897   -0.256623
      5          6           0       -0.829220    0.947183    0.107987
      6          6           0       -0.798729   -1.464258    0.270783
      7          6           0       -0.115339   -0.236403    0.375045
      8          6           0        1.380270   -0.251569    0.709394
      9          6           0        2.274445   -0.159031   -0.567680
     10          8           0       -0.259736    2.194587    0.157479
     11          1           0        4.358122   -0.239242   -1.221771
     12          1           0        4.140085    0.479634    0.380150
     13          1           0        4.001721   -1.271341    0.170566
     14          1           0       -2.672431   -2.467608   -0.123058
     15          1           0       -3.876432   -0.360704   -0.642009
     16          1           0       -2.718417    1.816687   -0.461450
     17          1           0       -0.261196   -2.388951    0.455779
     18          1           0        1.610468   -1.192936    1.210869
     19          1           0        1.635928    0.585875    1.371429
     20          1           0        1.942189   -0.931716   -1.270412
     21          1           0        2.080720    0.796704   -1.070617
     22          1           0        0.659470    2.133029    0.444690
 ---------------------------------------------------------------------
 Rotational constants (GHZ):      2.4616842      0.8386085      0.6672637
 Standard basis: 6-31G(d) (6D, 7F)
 There are   174 symmetry adapted cartesian basis functions of A   symmetry.
 There are   174 symmetry adapted basis functions of A   symmetry.
   174 basis functions,   328 primitive gaussians,   174 cartesian basis functions
    37 alpha electrons       37 beta electrons
       nuclear repulsion energy       503.4985423617 Hartrees.
 NAtoms=   22 NActive=   22 NUniq=   22 SFac= 1.00D+00 NAtFMM=   60 NAOKFM=F Big=F
 Integral buffers will be    131072 words long.
 Raffenetti 2 integral format.
 Two-electron integral symmetry is turned on.
 One-electron integrals computed using PRISM.
 NBasis=   174 RedAO= T EigKep=  4.28D-04  NBF=   174
 NBsUse=   174 1.00D-06 EigRej= -1.00D+00 NBFU=   174
 Initial guess from the checkpoint file:  "lig-opt.chk"
 B after Tr=     0.000000    0.000000    0.000000
         Rot=    0.999877    0.008262    0.005003   -0.012330 Ang=   1.79 deg.
 ExpMin= 1.61D-01 ExpMax= 5.48D+03 ExpMxC= 8.25D+02 IAcc=1 IRadAn=         1 AccDes= 0.00D+00
 Harris functional with IExCor=  402 and IRadAn=       1 diagonalized for initial guess.
 HarFok:  IExCor=  402 AccDes= 0.00D+00 IRadAn=         1 IDoV= 1 UseB2=F ITyADJ=14
 ICtDFT=  3500011 ScaDFX=  1.000000  1.000000  1.000000  1.000000
 FoFCou: FMM=F IPFlag=           0 FMFlag=      100000 FMFlg1=           0
         NFxFlg=           0 DoJE=T BraDBF=F KetDBF=T FulRan=T
         wScrn=  0.000000 ICntrl=     500 IOpCl=  0 I1Cent=   200000004 NGrid=           0
         NMat0=    1 NMatS0=      1 NMatT0=    0 NMatD0=    1 NMtDS0=    0 NMtDT0=    0
 Petite list used in FoFCou.
 Keep R1 ints in memory in canonical form, NReq=118699273.
 Requested convergence on RMS density matrix=1.00D-08 within 128 cycles.
 Requested convergence on MAX density matrix=1.00D-06.
 Requested convergence on             energy=1.00D-06.
 No special actions if energy rises.
 Integral accuracy reduced to 1.0D-05 until final iterations.
 Initial convergence to 1.0D-05 achieved.  Increase integral accuracy.
 SCF Done:  E(RB3LYP) =  -425.407917426     A.U. after   13 cycles
            NFock= 13  Conv=0.36D-08     -V/T= 2.0099
 Calling FoFJK, ICntrl=      2127 FMM=F ISym2X=0 I1Cent= 0 IOpClX= 0 NMat=1 NMatS=1 NMatT=0.
 ***** Axes restored to original set *****
 -------------------------------------------------------------------
 Center     Atomic                   Forces (Hartrees/Bohr)
 Number     Number              X              Y              Z
 -------------------------------------------------------------------
      1        6          -0.002367084   -0.000242037   -0.002357588
      2        6          -0.000611809   -0.000414864    0.001703990
      3        6          -0.000390248    0.000043623   -0.001938539
      4        6          -0.001360372   -0.000975041    0.001978741
      5        6           0.001059690   -0.001720988    0.000330160
      6        6           0.002532756    0.004138364   -0.007307009
      7        6          -0.002041283   -0.003110544    0.010493978
      8        6           0.015575476   -0.007189538   -0.009239107
      9        6          -0.003840087    0.000650332   -0.002566295
     10        8          -0.000401189   -0.000784421   -0.003677227
     11        1           0.000160489   -0.000243841   -0.000473889
     12        1          -0.000140645    0.000408041    0.000091912
     13        1          -0.000293392   -0.000028326    0.000474466
     14        1           0.001320989   -0.000202020    0.001161941
     15        1          -0.000533874    0.000551557   -0.000207548
     16        1           0.001398966    0.002248339    0.000616877
     17        1          -0.001003036    0.001284527    0.001925223
     18        1          -0.004388149    0.004021179    0.001276587
     19        1          -0.004657640    0.001518461    0.003659071
     20        1          -0.000107057   -0.000668547    0.001043548
     21        1           0.000690360    0.000491542   -0.000777209
     22        1          -0.000602860    0.000224201    0.003787918
 -------------------------------------------------------------------
 Cartesian Forces:  Max     0.015575476 RMS     0.003385590

 GradGradGradGradGradGradGradGradGradGradGradGradGradGradGradGradGradGrad
 Berny optimization.
 Using GEDIIS/GDIIS optimizer.
 FormGI is forming the generalized inverse of G from B-inverse, IUseBI=4.
 Internal  Forces:  Max     0.008082361 RMS     0.001941732
 Search for a local minimum.
 Step number   2 out of a maximum of  119
 All quantities printed in internal units (Hartrees-Bohrs-Radians)
 Mixed Optimization -- RFO/linear search
 Update second derivatives using D2CorX and points    1    2
 DE= -1.35D-02 DEPred=-1.63D-02 R= 8.29D-01
 TightC=F SS=  1.41D+00  RLast= 4.02D-01 DXNew= 5.0454D-01 1.2070D+00
 Trust test= 8.29D-01 RLast= 4.02D-01 DXMaxT set to 5.05D-01
 ITU=  1  0
 Use linear search instead of GDIIS.
     Eigenvalues ---    0.00230   0.00850   0.00886   0.01598   0.02036
     Eigenvalues ---    0.02091   0.02134   0.02168   0.02201   0.02230
     Eigenvalues ---    0.02242   0.02262   0.02283   0.03512   0.04287
     Eigenvalues ---    0.04913   0.05623   0.05810   0.05843   0.08746
     Eigenvalues ---    0.09222   0.12468   0.12747   0.15603   0.15998
     Eigenvalues ---    0.15999   0.16000   0.16000   0.16000   0.16000
     Eigenvalues ---    0.16255   0.21324   0.21998   0.22254   0.22551
     Eigenvalues ---    0.24190   0.24671   0.25901   0.28561   0.33096
     Eigenvalues ---    0.34614   0.34746   0.34785   0.34812   0.34835
     Eigenvalues ---    0.34853   0.34874   0.35828   0.35954   0.35967
     Eigenvalues ---    0.35999   0.36658   0.41483   0.43179   0.45073
     Eigenvalues ---    0.46862   0.47271   0.49033   0.53736   0.55429
 RFO step:  Lambda=-2.50057984D-03 EMin= 2.30155134D-03
 Quartic linear search produced a step of  0.03604.
 Iteration  1 RMS(Cart)=  0.05837979 RMS(Int)=  0.00111784
 Iteration  2 RMS(Cart)=  0.00203223 RMS(Int)=  0.00012238
 Iteration  3 RMS(Cart)=  0.00000055 RMS(Int)=  0.00012238
 Variable       Old X    -DE/DX   Delta X   Delta X   Delta X     New X
                                 (Linear)    (Quad)   (Total)
    R1        2.89994  -0.00250   0.00297  -0.00661  -0.00364   2.89630
    R2        2.07009   0.00004   0.00039   0.00027   0.00065   2.07074
    R3        2.07229   0.00042   0.00043   0.00140   0.00183   2.07412
    R4        2.07139   0.00052   0.00042   0.00169   0.00211   2.07351
    R5        2.63543   0.00189  -0.00059   0.00479   0.00416   2.63959
    R6        2.63546  -0.00069   0.00035  -0.00129  -0.00098   2.63448
    R7        2.05390  -0.00038   0.00044  -0.00092  -0.00048   2.05342
    R8        2.62947   0.00021   0.00083   0.00131   0.00213   2.63160
    R9        2.05425  -0.00006   0.00047   0.00000   0.00047   2.05472
   R10        2.64858  -0.00270   0.00034  -0.00596  -0.00559   2.64298
   R11        2.04941   0.00066   0.00030   0.00198   0.00228   2.05170
   R12        2.66030  -0.00309   0.00144  -0.00676  -0.00528   2.65502
   R13        2.59298  -0.00097   0.00104  -0.00149  -0.00045   2.59252
   R14        2.66279  -0.00584  -0.00020  -0.01443  -0.01462   2.64816
   R15        2.05122   0.00154   0.00039   0.00452   0.00491   2.05614
   R16        2.89620  -0.00808   0.00264  -0.02411  -0.02146   2.87473
   R17        2.95126  -0.00712   0.00101  -0.02575  -0.02474   2.92652
   R18        2.06200   0.00235   0.00006   0.00696   0.00702   2.06903
   R19        2.07437   0.00165   0.00051   0.00504   0.00555   2.07992
   R20        2.07119   0.00068   0.00044   0.00216   0.00260   2.07379
   R21        2.07346   0.00115   0.00053   0.00356   0.00410   2.07755
   R22        1.82358   0.00337   0.00033   0.00636   0.00669   1.83027
    A1        1.94247  -0.00087   0.00111  -0.00559  -0.00449   1.93798
    A2        1.94472   0.00020   0.00122   0.00178   0.00298   1.94770
    A3        1.93847   0.00040   0.00097   0.00326   0.00421   1.94269
    A4        1.87862   0.00027  -0.00114   0.00062  -0.00054   1.87808
    A5        1.87937   0.00023  -0.00108   0.00094  -0.00015   1.87922
    A6        1.87711  -0.00022  -0.00119  -0.00096  -0.00218   1.87493
    A7        2.08261  -0.00064  -0.00068  -0.00153  -0.00233   2.08027
    A8        2.09442   0.00134   0.00000   0.00712   0.00717   2.10159
    A9        2.10606  -0.00070   0.00067  -0.00560  -0.00487   2.10119
   A10        2.10534  -0.00213  -0.00096  -0.00745  -0.00850   2.09685
   A11        2.09407   0.00135  -0.00001   0.00536   0.00540   2.09947
   A12        2.08378   0.00078   0.00096   0.00208   0.00309   2.08686
   A13        2.09275  -0.00007   0.00150   0.00135   0.00283   2.09558
   A14        2.10028   0.00272   0.00022   0.01671   0.01694   2.11722
   A15        2.09016  -0.00264  -0.00173  -0.01805  -0.01977   2.07039
   A16        2.10422   0.00174  -0.00039   0.00570   0.00521   2.10944
   A17        2.02914   0.00093  -0.00224   0.00387   0.00147   2.03062
   A18        2.14959  -0.00266   0.00270  -0.00902  -0.00648   2.14311
   A19        2.11819   0.00171   0.00246   0.00779   0.01018   2.12837
   A20        2.08259   0.00077  -0.00042   0.00675   0.00634   2.08893
   A21        2.08236  -0.00248  -0.00204  -0.01446  -0.01648   2.06589
   A22        2.06308  -0.00060  -0.00188  -0.00535  -0.00727   2.05581
   A23        2.14667  -0.00576   0.00033  -0.02202  -0.02176   2.12490
   A24        2.07236   0.00638   0.00159   0.02816   0.02970   2.10206
   A25        1.96032  -0.00030   0.00542   0.01213   0.01699   1.97731
   A26        1.89091   0.00011  -0.00061   0.00728   0.00616   1.89706
   A27        1.92976   0.00051   0.00081   0.00659   0.00705   1.93680
   A28        1.88193   0.00219  -0.00093   0.02191   0.02064   1.90257
   A29        1.89086   0.00101  -0.00061   0.00880   0.00783   1.89869
   A30        1.90907  -0.00361  -0.00372  -0.05883  -0.06248   1.84659
   A31        1.99320  -0.00405   0.00045  -0.02143  -0.02101   1.97219
   A32        1.92187   0.00082   0.00046   0.00104   0.00150   1.92337
   A33        1.91456   0.00111   0.00020   0.00283   0.00301   1.91757
   A34        1.88489   0.00153  -0.00089   0.00724   0.00630   1.89119
   A35        1.90217   0.00123  -0.00025   0.00469   0.00439   1.90656
   A36        1.84073  -0.00035  -0.00003   0.00802   0.00794   1.84867
   A37        1.92632  -0.00339   0.00054  -0.02134  -0.02081   1.90551
    D1        3.13502   0.00011  -0.00023   0.00313   0.00290   3.13793
    D2        1.01111   0.00037   0.00026   0.00807   0.00831   1.01942
    D3       -1.00722  -0.00032  -0.00008  -0.00387  -0.00395  -1.01116
    D4       -1.05114   0.00000  -0.00015   0.00132   0.00118  -1.04996
    D5        3.10813   0.00026   0.00034   0.00626   0.00659   3.11472
    D6        1.08981  -0.00043   0.00000  -0.00567  -0.00567   1.08414
    D7        1.04126   0.00013  -0.00023   0.00350   0.00328   1.04455
    D8       -1.08265   0.00039   0.00026   0.00844   0.00869  -1.07396
    D9       -3.10098  -0.00030  -0.00008  -0.00350  -0.00357  -3.10454
   D10       -0.01899   0.00062   0.00123   0.02629   0.02739   0.00840
   D11        3.12046   0.00054   0.00115   0.02414   0.02522  -3.13751
   D12        3.10774   0.00061   0.00069   0.02463   0.02517   3.13291
   D13       -0.03600   0.00053   0.00062   0.02249   0.02300  -0.01300
   D14        0.01979  -0.00060  -0.00163  -0.02843  -0.03019  -0.01039
   D15       -3.11129  -0.00079  -0.00125  -0.03695  -0.03836   3.13354
   D16       -3.10683  -0.00060  -0.00108  -0.02688  -0.02808  -3.13491
   D17        0.04527  -0.00079  -0.00071  -0.03539  -0.03625   0.00903
   D18        0.00664  -0.00017  -0.00017  -0.00655  -0.00677  -0.00013
   D19       -3.13188  -0.00023  -0.00006  -0.00927  -0.00938  -3.14126
   D20       -3.13282  -0.00009  -0.00010  -0.00442  -0.00462  -3.13744
   D21        0.01184  -0.00015   0.00001  -0.00714  -0.00723   0.00462
   D22        0.00527  -0.00026  -0.00036  -0.01141  -0.01179  -0.00652
   D23        3.12458   0.00036   0.00143   0.01550   0.01691   3.14149
   D24       -3.13937  -0.00019  -0.00047  -0.00864  -0.00919   3.13462
   D25       -0.02006   0.00043   0.00132   0.01826   0.01951  -0.00055
   D26       -0.00455   0.00025  -0.00013   0.00921   0.00919   0.00464
   D27        3.08668   0.00077   0.00058   0.02867   0.02900   3.11568
   D28       -3.12227  -0.00047  -0.00184  -0.01980  -0.02152   3.13939
   D29       -0.03104   0.00005  -0.00112  -0.00033  -0.00171  -0.03275
   D30        3.10836  -0.00031  -0.00118  -0.01233  -0.01346   3.09490
   D31       -0.05615   0.00039   0.00053   0.01555   0.01602  -0.04014
   D32       -0.00807   0.00017   0.00112   0.01080   0.01194   0.00387
   D33       -3.10149   0.00002   0.00048  -0.00638  -0.00610  -3.10759
   D34        3.12301   0.00038   0.00075   0.01944   0.02014  -3.14003
   D35        0.02959   0.00023   0.00011   0.00226   0.00210   0.03169
   D36       -1.41368   0.00038  -0.00114   0.01127   0.01006  -1.40362
   D37        2.79266  -0.00222  -0.00271  -0.02800  -0.03078   2.76187
   D38        0.70079   0.00183   0.00180   0.03553   0.03741   0.73819
   D39        1.67729   0.00072  -0.00055   0.02991   0.02933   1.70662
   D40       -0.39955  -0.00188  -0.00212  -0.00937  -0.01152  -0.41107
   D41       -2.49142   0.00216   0.00239   0.05416   0.05667  -2.43475
   D42       -3.04538  -0.00031   0.00026  -0.05937  -0.05916  -3.10454
   D43       -0.90124  -0.00086   0.00052  -0.06714  -0.06671  -0.96795
   D44        1.09013   0.00015  -0.00012  -0.05155  -0.05173   1.03840
   D45       -0.96328   0.00107   0.00202  -0.02884  -0.02667  -0.98995
   D46        1.18086   0.00052   0.00227  -0.03661  -0.03422   1.14664
   D47       -3.11096   0.00153   0.00163  -0.02102  -0.01924  -3.13019
   D48        1.10116  -0.00146  -0.00349  -0.08175  -0.08530   1.01586
   D49       -3.03788  -0.00201  -0.00323  -0.08953  -0.09285  -3.13074
   D50       -1.04652  -0.00100  -0.00387  -0.07394  -0.07787  -1.12439
         Item               Value     Threshold  Converged?
 Maximum Force            0.008082     0.000450     NO 
 RMS     Force            0.001942     0.000300     NO 
 Maximum Displacement     0.208660     0.001800     NO 
 RMS     Displacement     0.058354     0.001200     NO 
 Predicted change in Energy=-1.303457D-03
 GradGradGradGradGradGradGradGradGradGradGradGradGradGradGradGradGradGrad

                          Input orientation:                          
 ---------------------------------------------------------------------
 Center     Atomic      Atomic             Coordinates (Angstroms)
 Number     Number       Type             X           Y           Z
 ---------------------------------------------------------------------
      1          6           0       24.278717  -23.986807    0.070903
      2          6           0       21.493338  -27.270522   -4.233112
      3          6           0       21.917563  -26.755571   -5.460278
      4          6           0       22.556627  -25.519564   -5.516605
      5          6           0       22.775492  -24.789771   -4.343744
      6          6           0       21.708992  -26.528023   -3.073058
      7          6           0       22.351076  -25.282687   -3.098408
      8          6           0       22.608013  -24.521612   -1.806537
      9          6           0       24.043108  -24.714389   -1.257309
     10          8           0       23.411407  -23.582678   -4.487487
     11          1           0       25.300916  -24.147489    0.431522
     12          1           0       24.128368  -22.904207   -0.029330
     13          1           0       23.591351  -24.343430    0.848277
     14          1           0       20.987064  -28.230794   -4.184969
     15          1           0       21.755061  -27.317828   -6.376631
     16          1           0       22.893863  -25.101279   -6.460044
     17          1           0       21.375075  -26.918040   -2.113756
     18          1           0       21.889282  -24.857995   -1.052191
     19          1           0       22.421061  -23.445162   -1.939670
     20          1           0       24.225903  -25.789849   -1.137886
     21          1           0       24.767785  -24.366786   -2.007431
     22          1           0       23.470936  -23.149517   -3.623257
 ---------------------------------------------------------------------
                    Distance matrix (angstroms):
                    1          2          3          4          5
     1  C    0.000000
     2  C    6.088158   0.000000
     3  C    6.620806   1.396809   0.000000
     4  C    6.044434   2.417393   1.392584   0.000000
     5  C    4.732183   2.794688   2.418069   1.398606   0.000000
     6  C    4.790173   1.394108   2.407093   2.776039   2.402829
     7  C    3.929331   2.444331   2.817046   2.438449   1.404976
     8  C    2.569446   3.832398   4.337870   3.842284   2.556830
     9  C    1.532657   4.678733   5.133158   4.582524   3.337456
    10  O    4.657732   4.164600   3.639388   2.353988   1.371905
    11  H    1.095789   6.783052   7.277532   6.692826   5.439987
    12  H    1.097576   6.609075   7.015401   6.278586   4.898959
    13  H    1.097252   6.228165   6.958294   6.554820   5.274650
    14  H    6.852653   1.086624   2.160676   3.404049   3.881278
    15  H    7.683439   2.159955   1.087310   2.148466   3.400732
    16  H    6.768540   3.409737   2.165497   1.085711   2.142375
    17  H    4.668619   2.151720   3.394097   3.864088   3.385786
    18  H    2.780235   4.011897   4.799253   4.562238   3.409450
    19  H    2.790461   4.555648   4.858703   4.137146   2.777259
    20  H    2.171387   4.386312   4.994410   4.693902   3.658057
    21  H    2.168650   4.909923   5.074664   4.304929   3.099437
    22  H    3.873034   4.611453   4.334886   3.168256   1.921764
                    6          7          8          9         10
     6  C    0.000000
     7  C    1.401348   0.000000
     8  C    2.537321   1.521244   0.000000
     9  C    3.469050   2.564289   1.548648   0.000000
    10  O    3.684275   2.438006   2.952038   3.480497   0.000000
    11  H    5.554362   4.738210   3.521449   2.180736   5.299613
    12  H    5.315045   4.270267   2.843579   2.189055   4.566127
    13  H    4.867504   4.242265   2.836678   2.185220   5.392726
    14  H    2.157997   3.425270   4.694938   5.502335   5.251089
    15  H    3.396985   3.904327   5.425136   6.182273   4.501521
    16  H    3.861501   3.410003   4.698175   5.342181   2.542633
    17  H    1.088060   2.143944   2.712451   3.564825   4.572296
    18  H    2.627813   2.140239   1.094882   2.168331   3.967941
    19  H    3.360899   2.173493   1.100645   2.169698   2.736981
    20  H    3.259545   2.759681   2.161733   1.097401   4.093267
    21  H    3.893934   2.805278   2.174613   1.099394   2.933473
    22  H    3.849866   2.465759   2.434698   2.893772   0.968537
                   11         12         13         14         15
    11  H    0.000000
    12  H    1.770029   0.000000
    13  H    1.770505   1.769164   0.000000
    14  H    7.522943   7.450480   6.872225   0.000000
    15  H    8.305124   8.087080   8.026101   2.495337   0.000000
    16  H    7.361882   6.906896   7.380540   4.313434   2.493374
    17  H    5.437520   5.294933   4.507121   2.482699   4.298409
    18  H    3.787541   3.142775   2.602613   4.690849   5.866724
    19  H    3.795969   2.618574   3.154221   5.477224   5.926864
    20  H    2.513173   3.092788   2.537642   5.072771   5.990345
    21  H    2.506154   2.541825   3.088625   5.828042   6.072484
    22  H    4.559168   3.661790   4.629746   5.683706   5.282055
                   16         17         18         19         20
    16  H    0.000000
    17  H    4.949501   0.000000
    18  H    5.505746   2.373840   0.000000
    19  H    4.837359   3.631153   1.751143   0.000000
    20  H    5.529361   3.217509   2.517041   3.065595   0.000000
    21  H    4.886392   4.246255   3.072384   2.522121   1.753525
    22  H    3.491382   4.568698   3.468560   2.006019   3.703836
                   21         22
    21  H    0.000000
    22  H    2.403010   0.000000
 Stoichiometry    C9H12O
 Framework group  C1[X(C9H12O)]
 Deg. of freedom    60
 Full point group                 C1      NOp   1
 Largest Abelian subgroup         C1      NOp   1
 Largest concise Abelian subgroup C1      NOp   1
                         Standard orientation:                         
 ---------------------------------------------------------------------
 Center     Atomic      Atomic             Coordinates (Angstroms)
 Number     Number       Type             X           Y           Z
 ---------------------------------------------------------------------
      1          6           0        3.765600   -0.279974   -0.255387
      2          6           0       -2.202160   -1.473117   -0.088282
      3          6           0       -2.854845   -0.260432   -0.321675
      4          6           0       -2.154449    0.939673   -0.229563
      5          6           0       -0.794582    0.934075    0.097287
      6          6           0       -0.848857   -1.463508    0.246405
[...]
 0.00018526,0.00070688,0.00035359,0.00104892,0.00259062,-0.01664978,0.0
 0191430,0.00001908,0.00029209,-0.00005818,0.00071405,-0.00289762,0.000
 75621,-0.04452474,0.32404593,-0.00519550,0.03421352,-0.05406456,0.0000
 0911,0.00007900,0.00002428,0.00000743,0.00000288,-0.00001807,-0.000001
 87,0.00001909,0.00000700,-0.00015717,-0.00022427,0.00010266,-0.0000253
 9,0.00007006,0.00005038,0.00021927,0.00023390,-0.00015955,0.00125187,-
 0.00047846,0.00144755,0.00474700,-0.03092187,0.00434364,0.00011304,0.0
 0020508,-0.00001333,-0.00056876,0.01002885,-0.00221460,0.00663010,-0.0
 3470955,0.05743913,-0.14989117,-0.05278663,0.11476458,-0.00001226,0.00
 001218,0.00000244,0.00000841,0.00001204,0.00001638,-0.00000025,0.00001
 102,-0.00000132,-0.00003036,0.00006754,-0.00003234,-0.00001893,-0.0000
 1806,0.00008886,0.00008233,0.00001497,-0.00005734,0.00126551,0.0004693
 4,-0.00069740,0.00304670,0.00275094,-0.00410273,-0.00000197,-0.0000617
 6,-0.00000106,-0.01830113,-0.01117013,0.02291105,0.00382182,0.00176985
 ,-0.00546923,0.15900738,-0.05286065,-0.07838368,0.06196632,-0.00000036
 ,-0.00001484,-0.00002349,-0.00001128,-0.00001222,0.00001513,-0.0000092
 3,0.00002594,0.00001774,0.00004727,0.00007616,0.00001226,0.00001127,0.
 00004212,0.00001338,0.00020377,-0.00010641,0.00010957,0.00058236,0.000
 31093,0.00047690,0.01188831,0.00625263,-0.01353905,-0.00010327,0.00001
 213,-0.00008575,0.00315660,0.00091015,-0.00424601,-0.02145169,-0.00984
 630,0.02331736,0.05906463,0.08095610,0.11446545,0.06172114,-0.18153839
 ,-0.00001112,-0.00004629,-0.00002790,-0.00001216,-0.00000956,0.0000116
 1,-0.00005436,-0.00006845,0.00007396,0.00032786,0.00049875,0.00010787,
 0.00003615,0.00011519,-0.00005529,-0.00030379,-0.00037500,0.00045344,0
 .00159990,0.00082219,0.00094757,0.01807187,0.00988225,-0.02188180,-0.0
 0042215,-0.00017470,-0.00010196,-0.00636255,-0.00439873,0.00881344,0.0
 0198206,0.00155145,-0.00302422,-0.12660564,-0.06523227,0.19901958,-0.0
 0002387,0.00000160,0.00001928,-0.10156410,-0.12929281,0.00748313,-0.00
 329128,-0.00774488,-0.00146060,0.00496534,-0.00241582,0.00261148,-0.00
 021949,0.00062542,0.00016954,-0.00119229,-0.00272419,0.00101228,0.0057
 0934,-0.00229584,-0.00017810,0.00032413,-0.00036439,0.00011089,0.00006
 725,-0.00003030,0.00006947,-0.00060496,0.00019120,-0.00017866,-0.00000
 931,-0.00000420,-0.00000940,0.00000504,0.00000758,0.00000152,0.0000076
 0,-0.00000189,0.00000249,0.10106182,-0.00010015,0.00004756,0.00000002,
 -0.12923630,-0.26949197,0.00611238,-0.00390569,-0.00700823,-0.00169827
 ,-0.00259367,0.00232398,0.00200359,0.00055267,0.00048904,-0.00015804,-
 0.00662152,-0.01106556,0.00304226,-0.00231412,0.00186968,-0.00334221,-
 0.00048607,-0.00031667,0.00048366,0.00011907,-0.00016578,-0.00014004,0
 .00024405,-0.00026757,0.00011662,-0.00002651,-0.00001787,-0.00004797,0
 .00000709,-0.00000119,0.00000647,0.00001250,-0.00000027,-0.00000987,0.
 14096454,0.28422423,-0.00008446,0.00002945,-0.00000266,0.00742478,0.00
 619729,-0.05961063,0.01356164,0.02604610,0.00404549,0.00196079,0.00071
 426,-0.00469312,0.00005588,-0.00023837,-0.00161883,-0.01405449,-0.0249
 1612,0.00519006,0.00036039,-0.00194367,-0.00422085,-0.00044746,-0.0010
 1009,0.00053824,0.00012329,-0.00012452,-0.00008356,-0.00010771,0.00009
 962,0.00040064,-0.00001908,-0.00000758,-0.00003467,0.00000815,0.000011
 04,0.00000797,0.00000859,-0.00000082,-0.00000033,-0.00837825,-0.006534
 75,0.05833959,-0.00003204,0.00002046,-0.00001130,0.00441170,0.00630599
 ,0.00887859,-0.04760616,-0.03159042,-0.03305171,0.00040674,-0.00679507
 ,-0.01378584,0.00481345,-0.00511018,0.00173168,0.00459478,-0.00353262,
 0.00242697,-0.00086203,-0.00007177,0.00020389,-0.00058976,0.00049729,-
 0.00015622,-0.00001403,-0.00011928,-0.00008312,0.00009610,-0.00043950,
 -0.00080611,-0.00000713,-0.00000932,-0.00001718,0.00000051,0.00000059,
 0.00000510,0.00000087,-0.00000113,-0.00000576,-0.00261791,0.00183416,-
 0.00077365,0.04015829,0.00000646,0.00000397,0.00000728,0.00257059,0.00
 989422,0.01099800,-0.03166317,-0.12556923,-0.12030659,-0.00309097,-0.0
 1015664,-0.02538925,-0.00519629,-0.00150044,0.00171167,-0.00333262,0.0
 0113772,0.00201286,-0.00007180,-0.00079375,0.00065319,0.00037448,-0.00
 015262,0.00006761,0.00001994,0.00004370,0.00003982,-0.00027880,-0.0008
 7712,-0.00157023,-0.00000799,-0.00000013,-0.00000404,0.00000205,-0.000
 00004,0.00000222,0.00000403,-0.00000122,-0.00000700,0.00193135,-0.0001
 7542,-0.00020510,0.03680907,0.12799155,-0.00002629,0.00001474,0.000005
 14,-0.00593925,-0.01638533,-0.01824670,-0.03310567,-0.12060906,-0.2616
 3110,0.00079668,0.00204677,0.00425132,0.00126134,0.00069327,0.00155308
 ,0.00312249,0.00323515,-0.00316854,0.00023242,0.00076782,0.00025821,-0
 .00007983,0.00000834,0.00001082,0.00003497,-0.00004258,-0.00000084,-0.
 00014382,-0.00026824,0.00007754,-0.00001764,-0.00000720,-0.00001988,0.
 00000319,-0.00000565,0.00000057,0.00000610,0.00000085,0.00000112,-0.00
 037491,0.00052227,0.00098162,0.03519378,0.13085285,0.27621329,-0.00002
 569,0.00000367,0.00000627,0.00420136,-0.00501709,-0.00029791,-0.002547
 75,-0.00375211,0.01324710,-0.06866376,-0.04580216,0.08207324,0.0052967
 4,0.00086864,-0.00451720,-0.00034127,-0.00007671,-0.00042498,0.0041056
 8,-0.00275491,-0.00023029,0.00015812,0.00013698,-0.00034281,0.00007692
 ,0.00001550,-0.00005196,-0.00226682,0.00196990,-0.00032071,-0.00000193
 ,-0.00000255,-0.00000360,0.00000253,0.00000703,0.00000121,0.00000074,0
 .00000178,0.00001211,0.00025706,-0.00044916,0.00074164,-0.00285692,0.0
 0211046,-0.00068498,0.06385459,-0.00001647,-0.00000379,-0.00000863,-0.
 00490561,-0.00281190,-0.00179368,-0.00733546,-0.00592572,0.02567811,-0
 .04618710,-0.09607149,0.09343673,0.00483739,0.00965233,-0.01452960,-0.
 00014617,-0.00084109,-0.00077408,-0.00286330,-0.00052621,-0.00290214,0
 .00044921,0.00063058,-0.00060476,0.00005441,-0.00001165,0.00002816,0.0
 0194138,0.00057702,0.00094422,-0.00000733,-0.00000372,-0.00000089,0.00
 000207,-0.00000538,-0.00000251,-0.00000261,-0.00000204,0.00001137,-0.0
 0065680,-0.00028532,0.00128627,0.00220737,0.00005950,-0.00003690,0.051
 94405,0.09583450,-0.00011545,0.00003286,0.00000572,0.00026006,-0.00079
 309,0.00178999,-0.00096315,-0.00111521,0.00431678,0.08098437,0.0917028
 7,-0.27014480,0.01080428,0.01404661,-0.02002767,-0.00060395,-0.0009894
 9,0.00016319,-0.00120427,-0.00408094,-0.00270432,0.00064817,0.00102911
 ,-0.00046376,0.00021758,-0.00007814,-0.00010662,-0.00022980,0.00092192
 ,0.00189972,-0.00003076,-0.00002271,-0.00004205,0.00001209,-0.00000988
 ,-0.00000174,0.00000721,0.00000172,0.00002572,-0.00004187,-0.00018434,
 0.00012683,-0.00033493,0.00061345,0.00073090,-0.08910775,-0.10095547,0
 .28445099,-0.00023942,0.00014225,-0.00007931,0.00429182,0.00227121,-0.
 00509963,0.00511863,-0.00293010,-0.00040036,-0.00050530,-0.00007898,-0
 .00034001,0.00413773,-0.00473632,-0.00053616,-0.06948800,-0.04271690,0
 .07981358,-0.00188133,-0.00523127,0.01403855,-0.00291365,0.00249568,0.
 00003115,0.00002198,-0.00070490,-0.00037220,-0.00037295,-0.00059199,0.
 00080961,-0.00000027,-0.00004323,-0.00006229,0.00001226,0.00003765,0.0
 0004118,0.00001269,-0.00001762,-0.00002701,-0.00268634,0.00196276,-0.0
 0030183,0.00032643,-0.00002185,-0.00025547,-0.00059868,0.00037830,-0.0
 0002913,0.06421867,0.00005395,-0.00006487,0.00000298,0.00619029,0.0098
 7564,-0.01501092,-0.00311348,0.00007528,-0.00324305,-0.00015703,-0.000
 90073,-0.00048552,-0.00462429,-0.00251329,-0.00216623,-0.04222681,-0.0
 9080189,0.08564225,-0.00922584,-0.00755774,0.02447080,0.00139943,-0.00
 003495,0.00261330,-0.00002224,0.00018376,-0.00009618,-0.00080421,-0.00
 103103,0.00159274,0.00002276,0.00002067,0.00002558,-0.00000166,0.00001
 588,0.00000181,-0.00001136,-0.00000372,-0.00004436,0.00187564,-0.00013
 912,0.00068347,0.00020124,0.00043806,-0.00086530,0.00039406,-0.0000618
 7,0.00013660,0.04932548,0.09216213,0.00008128,-0.00004724,0.00000663,0
 .00966870,0.01259430,-0.01897725,-0.00110575,-0.00454543,-0.00282470,-
 0.00045977,-0.00055937,0.00048116,0.00036398,-0.00099917,0.00143431,0.
 07999139,0.08613796,-0.26743498,-0.00003593,-0.00086925,0.00071569,-0.
 00121250,-0.00093087,0.00044360,-0.00007948,0.00007572,0.00021913,0.00
 003519,0.00020470,0.00008785,0.00002032,0.00002012,0.00002544,-0.00000
 388,-0.00000892,-0.00001410,-0.00000959,-0.00000022,0.00000462,-0.0006
 5839,0.00002052,0.00094152,0.00057609,0.00061764,-0.00113951,-0.000018
 93,0.00016755,-0.00004884,-0.08711003,-0.09204579,0.28509190,0.0012628
 7,0.00012249,0.00154745,0.00018601,0.00022338,0.00023731,0.00026960,0.
 00019982,-0.00020332,-0.00000366,-0.00013677,-0.00048006,0.00034642,-0
 .00054638,-0.00064967,0.00009165,-0.00056370,-0.00119482,0.00391735,0.
 00152233,-0.00550825,-0.15004267,-0.05474248,0.11642177,-0.02400915,-0
 .01190385,0.02158259,0.00041637,-0.00040863,-0.00059123,0.00041525,0.0
 0039827,-0.00014233,-0.00001939,-0.00001495,-0.00014323,0.00017237,-0.
 00023251,-0.00126507,-0.00005417,0.00003898,0.00001383,-0.00002378,0.0
 0002317,-0.00002527,-0.00013416,0.00000647,-0.00010190,0.00020460,0.00
 039765,0.00003737,0.16724769,-0.00035423,-0.00008801,0.00023947,0.0003
 5146,0.00011872,0.00007096,-0.00001437,-0.00019105,-0.00005554,0.00005
 797,0.00093423,-0.00029486,-0.00186240,-0.00352865,-0.00235794,0.00059
 278,0.00067853,-0.00159476,0.01071891,0.00529146,-0.01304685,-0.056129
 95,-0.08013334,0.06235207,0.00380042,0.00181839,-0.00322975,0.00005743
 ,0.00107836,0.00112736,0.00012876,-0.00006928,-0.00022261,-0.00008079,
 -0.00003946,0.00011562,-0.00023062,0.00011755,-0.00026955,-0.00000722,
 0.00003755,0.00003560,-0.00004769,0.00002470,0.00002944,-0.00000807,-0
 .00012604,-0.00021524,-0.00032526,-0.00014979,0.00018062,0.06202335,0.
 08434570,-0.00048042,-0.00017477,0.00134365,-0.00041850,-0.00023119,-0
 .00034471,-0.00007150,-0.00014144,0.00035071,0.00040657,0.00123022,-0.
 00089280,-0.00058236,-0.00389260,-0.00297260,0.00073127,0.00301199,0.0
 0124916,0.01639176,0.00919039,-0.02353861,0.11427467,0.06044633,-0.172
 38620,-0.00735341,-0.00450924,0.00769803,-0.00021934,-0.00067987,0.000
 04017,0.00010900,0.00005893,0.00020530,-0.00000417,-0.00002855,-0.0000
 6591,0.00029562,0.00029418,0.00011203,0.00000484,-0.00002607,0.0000074
 2,0.00000384,-0.00009224,0.00005114,-0.00014655,-0.00023824,-0.0003810
 8,-0.00031257,-0.00118942,0.00074983,-0.12194987,-0.06419606,0.1906846
 0,0.00149138,0.00088863,0.00118864,-0.00050058,-0.00013814,-0.00033328
 ,-0.00005060,0.00001650,0.00008722,-0.00004397,-0.00017327,-0.00010223
 ,0.00042581,0.00058979,0.00049106,0.00005346,-0.00076729,-0.00116716,0
 .00049870,-0.00723776,0.00007235,-0.05689144,0.04772281,-0.00293505,-0
 .00865163,0.03313432,-0.00650572,-0.00018989,-0.00018284,0.00024101,0.
 00011545,-0.00022465,0.00047606,0.00019461,-0.00103702,-0.00034951,-0.
 00002539,-0.00014715,-0.00010096,-0.00005919,-0.00006823,-0.00009265,0
 .00004315,-0.00003038,-0.00003952,0.00002881,0.00001143,-0.00000983,0.
 00040591,0.00007087,-0.00009465,0.00462898,-0.02088785,0.00196665,0.06
 391845,-0.00063866,0.00064290,-0.00030931,-0.00070966,-0.00000202,-0.0
 0035818,-0.00018185,-0.00039110,0.00008945,0.00034636,0.00039574,0.000
 09462,-0.00340216,-0.00397832,0.00164607,0.00133459,-0.00057775,-0.002
 80691,0.00030111,-0.01496411,-0.00100224,0.04580875,-0.27464940,0.0287
 3227,0.00144300,-0.00500063,0.00094385,0.00070391,0.00398787,0.0019524
 7,0.00002510,0.00041140,0.00002535,0.00027627,0.00055283,0.00068349,0.
 00002501,-0.00003017,-0.00000519,-0.00012578,-0.00010797,-0.00023204,0
 .00002990,0.00002379,-0.00006091,0.00004908,-0.00003385,-0.00014323,0.
 00048672,0.00011834,0.00000469,0.00201532,-0.01200613,0.00190451,-0.05
 137560,0.30339378,0.00019195,0.00128196,0.00053841,-0.00126125,-0.0002
 3631,-0.00012083,-0.00004364,-0.00048379,-0.00000799,-0.00093506,0.000
 48039,0.00052218,-0.00075097,-0.00173738,0.00036764,0.00087957,-0.0006
 9286,-0.00377186,0.00468760,-0.02913254,0.00397419,-0.00277663,0.02531
 834,-0.05364455,-0.00231785,0.01099219,-0.00205691,0.00071214,0.001673
 27,-0.00014433,0.00015634,-0.00023320,0.00006248,-0.00007084,-0.000660
 82,-0.00000466,-0.00001318,0.00010178,-0.00007183,-0.00018356,-0.00012
 843,-0.00028526,0.00011226,-0.00004650,0.00000214,0.00006855,0.0000523
 0,0.00001917,0.00014100,-0.00034950,0.00020837,-0.00503096,0.02313222,
 -0.00259269,0.00685221,-0.02876669,0.05861293,0.00070566,-0.00587094,0
 .00088364,-0.00006274,-0.00022717,-0.00025324,-0.00012815,-0.00017151,
 0.00016145,0.00009271,0.00028228,0.00015709,0.00025751,0.00004516,-0.0
 0055218,0.00037098,-0.00008143,0.00004146,0.00095243,0.00073574,0.0018
 0543,-0.00876261,0.03172378,-0.00719946,-0.05678123,0.04327484,-0.0046
 4680,0.00027638,-0.00038391,0.00017863,0.00020440,-0.00018752,0.000441
 73,0.00062631,-0.00050388,-0.00142446,0.00004842,0.00058650,-0.0000608
 0,-0.00000912,-0.00000101,-0.00002390,-0.00000806,-0.00000414,0.000018
 51,-0.00000833,-0.00000816,-0.00001072,-0.00019494,-0.00001265,0.00008
 641,0.00151244,-0.00012853,0.00066817,-0.00607669,0.00105825,-0.002718
 77,0.06349798,0.00224668,-0.01555918,0.00162163,0.00003714,0.00009926,
 0.00005779,0.00003121,0.00006563,0.00003162,-0.00000911,0.00004219,-0.
 00003828,-0.00029917,-0.00041946,0.00037257,0.00006108,0.00022419,0.00
 034129,-0.00034853,0.00080586,-0.00074148,0.00104855,-0.00321722,0.000
 80655,0.04426828,-0.29453975,0.03752520,0.00029463,0.00036172,-0.00001
 577,-0.00050839,0.00041653,0.00002358,-0.00065602,0.00006362,-0.003250
 74,0.00036328,0.00082872,-0.00010269,0.00001042,0.00002150,0.00001758,
 0.00000574,0.00000868,0.00000183,0.00001332,-0.00001188,0.00000536,0.0
 0008805,0.00004405,0.00000398,0.00034295,0.00057375,-0.00022820,0.0004
 2143,0.00138497,-0.00022083,-0.04856718,0.31918435,0.00503420,-0.03055
 299,0.00359446,0.00001144,-0.00016111,-0.00014833,-0.00005401,-0.00003
 222,0.00004146,0.00001976,-0.00003387,-0.00003323,0.00060440,0.0008818
 5,-0.00027886,0.00007645,-0.00027303,0.00017316,0.00029829,0.00099484,
 0.00081163,-0.00294759,0.01084478,-0.00276608,-0.00472113,0.03719085,-
 0.05533181,-0.00064758,-0.00046136,-0.00040705,-0.00003048,0.00077764,
 0.00118699,-0.00095321,-0.00355981,-0.00505660,0.00043828,0.00064239,0
 .00128985,-0.00000472,0.00000275,-0.00000069,-0.00000933,-0.00000757,0
 .00000031,-0.00000814,0.00000596,0.00000726,-0.00007920,0.00004506,0.0
 0001009,0.00029701,-0.00076834,0.00046294,-0.00256737,-0.00023763,-0.0
 0021422,0.00925312,-0.03803129,0.05999265,0.00424315,0.00226405,-0.004
 82113,0.00008707,0.00023358,0.00025355,0.00003384,0.00002751,-0.000149
 22,0.00011062,0.00027803,-0.00015839,-0.00168158,-0.00263338,-0.000127
 93,-0.00005956,-0.00065896,-0.00034995,0.00159335,0.00110215,0.0010395
 8,-0.02274067,-0.01131051,0.02103046,-0.15316251,-0.05176259,0.1135494
 6,0.00225509,0.00107824,0.00056491,0.00062998,0.00044782,0.00030511,-0
 .00002741,0.00024305,0.00038968,0.00081028,-0.00076312,-0.00159935,-0.
 00001606,0.00000222,-0.00001977,0.00002848,0.00002965,-0.00000893,-0.0
 0002778,-0.00003237,-0.00008195,0.00007379,0.00019613,-0.00005787,-0.0
 0568401,0.00128939,-0.00288921,0.00154709,0.00049469,0.00008638,0.0042
 2851,0.00131064,-0.00439775,0.16974158,0.01167945,0.00546313,-0.013502
 78,-0.00000376,0.00002333,0.00007250,0.00004125,0.00001743,-0.00005065
 ,-0.00001481,-0.00013515,-0.00009585,-0.00010857,0.00027888,-0.0001884
 1,-0.00007098,-0.00019452,-0.00005095,-0.00031535,0.00001467,0.0004007
 9,0.00336731,0.00105860,-0.00339182,-0.05127845,-0.07786138,0.05658326
 ,0.00026381,-0.00047860,0.00020027,-0.00001144,0.00047865,0.00092338,0
 .00049781,0.00087323,0.00070349,-0.00029850,-0.00093609,-0.00366810,0.
 00000032,-0.00000100,-0.00000206,-0.00000136,0.00000176,-0.00001186,-0
 .00003403,0.00002236,-0.00000809,0.00009146,0.00003660,-0.00001422,0.0
 0106332,0.00106360,-0.00016401,-0.00034189,0.00062233,-0.00069729,-0.0
 2166893,-0.01047561,0.02311632,0.05677930,0.08003720,0.01813665,0.0092
 4046,-0.02163628,-0.00000987,0.00002280,0.00005317,-0.00002757,0.00006
 603,0.00001107,0.00003894,-0.00000091,0.00005313,-0.00029425,-0.000094
 77,-0.00003823,0.00000693,-0.00013091,0.00003464,0.00054072,-0.0000476
 8,0.00109805,-0.00891683,-0.00456923,0.00858128,0.11384256,0.05708385,
 -0.17099322,-0.00032272,0.00039087,-0.00079850,-0.00041534,0.00057878,
 0.00077390,0.00005048,-0.00022793,0.00138146,-0.00154344,-0.00382241,-
 0.00425414,0.00000062,0.00000647,-0.00000118,0.00000529,0.00000184,0.0
 0000374,0.00001837,0.00000282,0.00001555,0.00001755,0.00002687,-0.0000
 3157,-0.00313042,0.00008815,-0.00010888,0.00093091,-0.00025773,0.00030
 971,0.00305118,0.00208391,-0.00377829,-0.12183635,-0.06073937,0.189568
 07,-0.00068288,-0.00023026,0.00011869,0.00004455,0.00028278,0.00030050
 ,0.00151565,-0.00074721,-0.00102906,-0.00049841,-0.00423032,0.00171053
 ,-0.00514217,-0.01216852,-0.02300181,-0.00050458,-0.00009038,-0.000303
 24,0.00008579,0.00007042,-0.00051330,0.00200092,-0.00287070,0.00007487
 ,0.00229997,0.00068711,-0.00134511,-0.01225399,-0.01639956,0.00909892,
 -0.00005841,-0.00001297,-0.00016220,0.00016576,0.00002243,-0.00008137,
 -0.00000364,0.00005741,0.00033284,-0.00004951,0.00006439,0.00004426,-0
 .00026268,-0.00018323,0.00003210,-0.00050946,0.00032931,-0.00006829,0.
 00005640,0.00007207,-0.00001396,-0.00070061,0.00105651,-0.00042448,-0.
 00086242,0.00203563,0.00221469,-0.00074185,-0.00015502,0.00038757,-0.0
 0198326,0.00036402,-0.00014341,0.01808483,0.00020812,0.00064323,-0.000
 11193,0.00011416,0.00023223,0.00067650,-0.00040677,0.00078593,-0.00214
 651,-0.00390530,-0.00525434,0.00299698,-0.00234232,-0.02368393,-0.0405
 0621,-0.00002646,-0.00073890,-0.00110648,0.00070045,0.00148573,-0.0009
 6621,-0.00051416,0.00072588,0.00152754,-0.00032079,-0.00038810,0.00105
 956,-0.02729783,-0.11648182,-0.15157298,-0.00007491,-0.00007580,-0.000
 08964,0.00003071,-0.00022526,-0.00009542,0.00000233,-0.00019548,-0.000
 19058,0.00005603,0.00003039,0.00009444,-0.00019347,-0.00040105,0.00011
 968,0.00038231,-0.00005435,0.00010533,0.00011884,0.00028858,-0.0000073
 0,0.00017179,0.00024922,-0.00034466,-0.00024367,0.00020750,0.00035368,
 0.00011039,0.00009808,-0.00038324,0.00138448,0.00009058,0.00029812,0.0
 3204608,0.14266167,-0.00013468,0.00001401,-0.00013249,0.00027857,0.000
 45392,-0.00038740,-0.00006031,-0.00063811,-0.00000576,0.00134556,0.001
 24098,0.00199814,-0.00072031,0.00124244,0.00206593,-0.00002468,-0.0001
 2940,-0.00055731,0.00197086,0.00425222,0.00025043,-0.00087089,0.004324
 54,0.00071836,-0.00031933,0.00016744,-0.00154632,-0.01594591,-0.198814
 62,-0.41378053,0.00008341,-0.00005602,0.00006612,-0.00004138,-0.000123
 60,-0.00016732,-0.00000582,-0.00001956,0.00009506,-0.00001709,-0.00004
 701,-0.00002758,-0.00010234,0.00005008,0.00006561,-0.00001265,0.000233
 40,0.00036907,0.00011258,0.00025480,0.00005080,0.00027907,-0.00112002,
 0.00032850,0.00199183,-0.00189670,-0.00170208,0.00014352,-0.00026360,0
 .00044435,-0.00072131,0.00058547,-0.00024349,0.01277130,0.19028932,0.4
 1209790\\-0.00000596,0.00000163,0.00000102,-0.00000178,-0.00000162,0.0
 0000403,-0.00000179,-0.00000393,-0.00000106,0.00000358,-0.00000105,0.0
 0000368,-0.00000426,-0.00000757,0.00000587,0.00000165,0.00000436,-0.00
 000462,-0.00000384,-0.00001106,-0.00001606,-0.00000331,0.00001377,0.00
 001146,0.00001317,-0.00000512,-0.00000597,0.00000437,0.00000461,-0.000
 00616,0.00000067,0.00000140,0.00000253,0.00000005,-0.00000001,-0.00000
 172,-0.00000157,0.00000225,0.00000204,-0.00000161,0.00000026,0.0000009
 6,0.00000204,-0.00000145,-0.00000046,0.00000314,-0.00000256,-0.0000007
 9,-0.00000176,0.00000249,0.00000241,0.00000008,0.00000192,-0.00000406,
 0.00000034,-0.00000350,0.00000092,-0.00000562,0.00000295,0.00000319,-0
 .00000176,0.00000107,-0.00000042,0.00000417,0.00000115,0.00000319\\\@


 WISDOM IS KNOWING WHAT TO DO,
 SKILL IS KNOWING HOW TO DO IT,
 AND VIRTUE IS NOT DOING IT.
 Job cpu time:       0 days  0 hours 41 minutes 56.3 seconds.
 File lengths (MBytes):  RWF=     82 Int=      0 D2E=      0 Chk=      3 Scr=      1
 Normal termination of Gaussian 09 at Mon Jun 27 12:35:44 2016.
